;----------------------------TITLE -----------------------------------------------------------------------------------------
;   None
;
; This file was generated at 14:41 on 2023-05-16 by
;
;                  Automatic Topology Builder  
;
;                   REVISION 2022-10-31 14:18:01
;---------------------------------------------------------------------------------------------------------------------------
; Authors     : Martin Stroet, Bertrand Caron, Alpeshkumar K. Malde, Thomas Lee, Alan E. Mark
;
; Institute   : Molecular Dynamics group, 
;               School of Chemistry and Molecular Biosciences (SCMB),
;               The University of Queensland, QLD 4072, Australia
; URL         : https://atb.uq.edu.au
; Citations   : 1. Malde AK, Zuo L, Breeze M, Stroet M, Poger D, Nair PC, Oostenbrink C, Mark AE.
;                  An Automated force field Topology Builder (ATB) and repository: version 1.0.
;                  Journal of Chemical Theory and Computation, 2011, 7, 4026-4037.
;               2. Stroet M, Caron B, Visscher K, Geerke D, Malde AK, Mark AE.
;                  Automated Topology Builder version 3.0: Prediction of solvation free enthalpies in water and hexane.
;                  DOI:10.1021/acs.jctc.8b00768
;
; Disclaimer  : 
;      While every effort has been made to ensure the accuracy and validity of parameters provided below
;      the assignment of parameters is being based on an automated procedure combining data provided by a
;      given user as well as calculations performed using third party software. They are provided as a guide.
;      The authors of the ATB cannot guarantee that the parameters are complete or that the parameters provided
;      are appropriate for use in any specific application. Users are advised to treat these parameters with discretion
;      and to perform additional validation tests for their specific application if required. Neither the authors
;      of the ATB or The University of Queensland except any responsibly for how the parameters may be used.
;
; Release notes and warnings: 
;  (1) The topology is based on a set of atomic coordinates and other data provided by the user after
;      after quantum mechanical optimization of the structure using different levels of theory depending on
;      the nature of the molecule.
;  (2) In some cases the automatic bond, bond angle and dihedral type assignment is ambiguous.
;      In these cases alternative type codes are provided at the end of the line.
;  (3) While bonded parameters are taken where possible from the nominated force field non-standard bond, angle and dihedral
;      type code may be incorporated in cases where an exact match could not be found. These are marked as "non-standard"
;      or "uncertain" in comments.
;  (4) In some cases it is not possible to assign an appropriate parameter automatically. "%%" is used as a place holder
;      for those fields that could not be determined automatically. The parameters in these fields must be assigned manually
;      before the file can be used.
;---------------------------------------------------------------------------------------------------------------------------
; Input Structure : 82NB
; Output          : ALL ATOM topology
;	Use in conjunction with the corresponding all atom PDB file.
;---------------------------------------------------------------------------------------------------------------------------
; Citing this topology file
; ATB molid: 931356
; ATB Topology Hash: 124d4
;---------------------------------------------------------------------------------------------------------------------------
; Initial Guess Topology Generation:
; The topology was generated from AM1 optimized geometry and MOPAC charges.
; Bonded and van der Waals parameters were taken from the GROMOS 54A7 parameter set.
;---------------------------------------------------------------------------------------------------------------------------
;
;
[ moleculetype ]
; Name   nrexcl
82NB     3
[ atoms ]
;  nr  type  resnr  resid  atom  cgnr  charge    mass
    1    HC    1    82NB   H122    1    0.072   1.0080
    2     C    1    82NB    C60    2   -0.213  12.0110
    3    HC    1    82NB   H120    3    0.072   1.0080
    4    HC    1    82NB   H121    4    0.072   1.0080
    5     C    1    82NB    C59    5   -0.159  12.0110
    6    HC    1    82NB   H118    6    0.078   1.0080
    7    HC    1    82NB   H119    7    0.078   1.0080
    8     C    1    82NB    C58    8   -0.157  12.0110
    9    HC    1    82NB   H116    9    0.078   1.0080
   10    HC    1    82NB   H117   10    0.078   1.0080
   11     C    1    82NB    C57   11   -0.157  12.0110
   12    HC    1    82NB   H114   12    0.078   1.0080
   13    HC    1    82NB   H115   13    0.078   1.0080
   14     C    1    82NB    C56   14   -0.158  12.0110
   15    HC    1    82NB   H112   15    0.079   1.0080
   16    HC    1    82NB   H113   16    0.079   1.0080
   17     C    1    82NB    C55   17   -0.158  12.0110
   18    HC    1    82NB   H110   18    0.078   1.0080
   19    HC    1    82NB   H111   19    0.078   1.0080
   20     C    1    82NB    C54   20   -0.157  12.0110
   21    HC    1    82NB   H108   21    0.079   1.0080
   22    HC    1    82NB   H109   22    0.079   1.0080
   23     C    1    82NB    C53   23   -0.157  12.0110
   24    HC    1    82NB   H106   24    0.078   1.0080
   25    HC    1    82NB   H107   25    0.078   1.0080
   26     C    1    82NB    C52   26   -0.157  12.0110
   27    HC    1    82NB   H104   27    0.079   1.0080
   28    HC    1    82NB   H105   28    0.079   1.0080
   29     C    1    82NB    C51   29   -0.156  12.0110
   30    HC    1    82NB   H102   30    0.078   1.0080
   31    HC    1    82NB   H103   31    0.078   1.0080
   32     C    1    82NB    C50   32   -0.158  12.0110
   33    HC    1    82NB   H100   33    0.079   1.0080
   34    HC    1    82NB   H101   34    0.079   1.0080
   35     C    1    82NB    C49   35   -0.158  12.0110
   36    HC    1    82NB    H98   36    0.079   1.0080
   37    HC    1    82NB    H99   37    0.079   1.0080
   38     C    1    82NB    C48   38   -0.158  12.0110
   39    HC    1    82NB    H96   39    0.079   1.0080
   40    HC    1    82NB    H97   40    0.079   1.0080
   41     C    1    82NB    C47   41   -0.158  12.0110
   42    HC    1    82NB    H94   42    0.079   1.0080
   43    HC    1    82NB    H95   43    0.079   1.0080
   44     C    1    82NB    C46   44   -0.158  12.0110
   45    HC    1    82NB    H92   45    0.079   1.0080
   46    HC    1    82NB    H93   46    0.079   1.0080
   47     C    1    82NB    C45   47   -0.157  12.0110
   48    HC    1    82NB    H90   48    0.079   1.0080
   49    HC    1    82NB    H91   49    0.079   1.0080
   50     C    1    82NB    C44   50   -0.157  12.0110
   51    HC    1    82NB    H88   51    0.078   1.0080
   52    HC    1    82NB    H89   52    0.078   1.0080
   53     C    1    82NB    C43   53   -0.157  12.0110
   54    HC    1    82NB    H86   54    0.079   1.0080
   55    HC    1    82NB    H87   55    0.079   1.0080
   56     C    1    82NB    C42   56   -0.157  12.0110
   57    HC    1    82NB    H84   57    0.079   1.0080
   58    HC    1    82NB    H85   58    0.079   1.0080
   59     C    1    82NB    C41   59   -0.157  12.0110
   60    HC    1    82NB    H82   60    0.078   1.0080
   61    HC    1    82NB    H83   61    0.078   1.0080
   62     C    1    82NB    C40   62   -0.157  12.0110
   63    HC    1    82NB    H80   63    0.079   1.0080
   64    HC    1    82NB    H81   64    0.079   1.0080
   65     C    1    82NB    C39   65   -0.158  12.0110
   66    HC    1    82NB    H78   66    0.078   1.0080
   67    HC    1    82NB    H79   67    0.078   1.0080
   68     C    1    82NB    C38   68   -0.158  12.0110
   69    HC    1    82NB    H76   69    0.079   1.0080
   70    HC    1    82NB    H77   70    0.079   1.0080
   71     C    1    82NB    C37   71   -0.157  12.0110
   72    HC    1    82NB    H74   72    0.078   1.0080
   73    HC    1    82NB    H75   73    0.078   1.0080
   74     C    1    82NB    C36   74   -0.157  12.0110
   75    HC    1    82NB    H72   75    0.079   1.0080
   76    HC    1    82NB    H73   76    0.079   1.0080
   77     C    1    82NB    C35   77   -0.157  12.0110
   78    HC    1    82NB    H70   78    0.079   1.0080
   79    HC    1    82NB    H71   79    0.079   1.0080
   80     C    1    82NB    C34   80   -0.157  12.0110
   81    HC    1    82NB    H68   81    0.078   1.0080
   82    HC    1    82NB    H69   82    0.078   1.0080
   83     C    1    82NB    C33   83   -0.157  12.0110
   84    HC    1    82NB    H66   84    0.079   1.0080
   85    HC    1    82NB    H67   85    0.079   1.0080
   86     C    1    82NB    C32   86   -0.157  12.0110
   87    HC    1    82NB    H64   87    0.079   1.0080
   88    HC    1    82NB    H65   88    0.079   1.0080
   89     C    1    82NB    C31   89   -0.157  12.0110
   90    HC    1    82NB    H62   90    0.079   1.0080
   91    HC    1    82NB    H63   91    0.079   1.0080
   92     C    1    82NB    C30   92   -0.157  12.0110
   93    HC    1    82NB    H60   93    0.079   1.0080
   94    HC    1    82NB    H61   94    0.079   1.0080
   95     C    1    82NB    C29   95   -0.157  12.0110
   96    HC    1    82NB    H58   96    0.079   1.0080
   97    HC    1    82NB    H59   97    0.079   1.0080
   98     C    1    82NB    C28   98   -0.157  12.0110
   99    HC    1    82NB    H56   99    0.079   1.0080
  100    HC    1    82NB    H57  100    0.079   1.0080
  101     C    1    82NB    C27  101   -0.157  12.0110
  102    HC    1    82NB    H54  102    0.078   1.0080
  103    HC    1    82NB    H55  103    0.078   1.0080
  104     C    1    82NB    C26  104   -0.157  12.0110
  105    HC    1    82NB    H52  105    0.079   1.0080
  106    HC    1    82NB    H53  106    0.079   1.0080
  107     C    1    82NB    C25  107   -0.157  12.0110
  108    HC    1    82NB    H50  108    0.079   1.0080
  109    HC    1    82NB    H51  109    0.079   1.0080
  110     C    1    82NB    C24  110   -0.157  12.0110
  111    HC    1    82NB    H48  111    0.078   1.0080
  112    HC    1    82NB    H49  112    0.078   1.0080
  113     C    1    82NB    C23  113   -0.158  12.0110
  114    HC    1    82NB    H46  114    0.079   1.0080
  115    HC    1    82NB    H47  115    0.079   1.0080
  116     C    1    82NB    C22  116   -0.158  12.0110
  117    HC    1    82NB    H44  117    0.078   1.0080
  118    HC    1    82NB    H45  118    0.078   1.0080
  119     C    1    82NB    C21  119   -0.157  12.0110
  120    HC    1    82NB    H42  120    0.079   1.0080
  121    HC    1    82NB    H43  121    0.079   1.0080
  122     C    1    82NB    C20  122   -0.157  12.0110
  123    HC    1    82NB    H40  123    0.078   1.0080
  124    HC    1    82NB    H41  124    0.078   1.0080
  125     C    1    82NB    C19  125   -0.157  12.0110
  126    HC    1    82NB    H38  126    0.079   1.0080
  127    HC    1    82NB    H39  127    0.079   1.0080
  128     C    1    82NB    C18  128   -0.157  12.0110
  129    HC    1    82NB    H36  129    0.079   1.0080
  130    HC    1    82NB    H37  130    0.079   1.0080
  131     C    1    82NB    C17  131   -0.157  12.0110
  132    HC    1    82NB    H34  132    0.078   1.0080
  133    HC    1    82NB    H35  133    0.078   1.0080
  134     C    1    82NB    C16  134   -0.157  12.0110
  135    HC    1    82NB    H32  135    0.079   1.0080
  136    HC    1    82NB    H33  136    0.079   1.0080
  137     C    1    82NB    C15  137   -0.158  12.0110
  138    HC    1    82NB    H30  138    0.079   1.0080
  139    HC    1    82NB    H31  139    0.079   1.0080
  140     C    1    82NB    C14  140   -0.158  12.0110
  141    HC    1    82NB    H28  141    0.079   1.0080
  142    HC    1    82NB    H29  142    0.079   1.0080
  143     C    1    82NB    C13  143   -0.158  12.0110
  144    HC    1    82NB    H26  144    0.079   1.0080
  145    HC    1    82NB    H27  145    0.079   1.0080
  146     C    1    82NB    C12  146   -0.158  12.0110
  147    HC    1    82NB    H24  147    0.079   1.0080
  148    HC    1    82NB    H25  148    0.079   1.0080
  149     C    1    82NB    C11  149   -0.158  12.0110
  150    HC    1    82NB    H22  150    0.079   1.0080
  151    HC    1    82NB    H23  151    0.079   1.0080
  152     C    1    82NB    C10  152   -0.156  12.0110
  153    HC    1    82NB    H20  153    0.078   1.0080
  154    HC    1    82NB    H21  154    0.078   1.0080
  155     C    1    82NB     C9  155   -0.157  12.0110
  156    HC    1    82NB    H18  156    0.079   1.0080
  157    HC    1    82NB    H19  157    0.079   1.0080
  158     C    1    82NB     C8  158   -0.157  12.0110
  159    HC    1    82NB    H16  159    0.078   1.0080
  160    HC    1    82NB    H17  160    0.078   1.0080
  161     C    1    82NB     C7  161   -0.157  12.0110
  162    HC    1    82NB    H14  162    0.079   1.0080
  163    HC    1    82NB    H15  163    0.079   1.0080
  164     C    1    82NB     C6  164   -0.158  12.0110
  165    HC    1    82NB    H12  165    0.078   1.0080
  166    HC    1    82NB    H13  166    0.078   1.0080
  167     C    1    82NB     C5  167   -0.158  12.0110
  168    HC    1    82NB    H10  168    0.079   1.0080
  169    HC    1    82NB    H11  169    0.079   1.0080
  170     C    1    82NB     C4  170   -0.157  12.0110
  171    HC    1    82NB     H8  171    0.078   1.0080
  172    HC    1    82NB     H9  172    0.078   1.0080
  173     C    1    82NB     C3  173   -0.157  12.0110
  174    HC    1    82NB     H6  174    0.078   1.0080
  175    HC    1    82NB     H7  175    0.078   1.0080
  176     C    1    82NB     C2  176   -0.159  12.0110
  177    HC    1    82NB     H4  177    0.078   1.0080
  178    HC    1    82NB     H5  178    0.078   1.0080
  179     C    1    82NB     C1  179   -0.213  12.0110
  180    HC    1    82NB     H1  180    0.072   1.0080
  181    HC    1    82NB     H2  181    0.072   1.0080
  182    HC    1    82NB     H3  182    0.072   1.0080
; total charge of the molecule:  -0.000
[ bonds ]
;  ai   aj  funct   c0         c1
    1    2    2   0.1120   3.7000e+07
    2    3    2   0.1120   3.7000e+07
    2    4    2   0.1120   3.7000e+07
    2    5    2   0.1510   3.7279e+06
    5    6    2   0.1120   3.7000e+07
    5    7    2   0.1120   3.7000e+07
    5    8    2   0.1520   5.4300e+06
    8    9    2   0.1120   3.7000e+07
    8   10    2   0.1120   3.7000e+07
    8   11    2   0.1520   5.4300e+06
   11   12    2   0.1120   3.7000e+07
   11   13    2   0.1120   3.7000e+07
   11   14    2   0.1520   5.4300e+06
   14   15    2   0.1120   3.7000e+07
   14   16    2   0.1120   3.7000e+07
   14   17    2   0.1520   5.4300e+06
   17   18    2   0.1120   3.7000e+07
   17   19    2   0.1120   3.7000e+07
   17   20    2   0.1520   5.4300e+06
   20   21    2   0.1120   3.7000e+07
   20   22    2   0.1120   3.7000e+07
   20   23    2   0.1520   5.4300e+06
   23   24    2   0.1120   3.7000e+07
   23   25    2   0.1120   3.7000e+07
   23   26    2   0.1520   5.4300e+06
   26   27    2   0.1120   3.7000e+07
   26   28    2   0.1120   3.7000e+07
   26   29    2   0.1520   5.4300e+06
   29   30    2   0.1120   3.7000e+07
   29   31    2   0.1120   3.7000e+07
   29   32    2   0.1520   5.4300e+06
   32   33    2   0.1120   3.7000e+07
   32   34    2   0.1120   3.7000e+07
   32   35    2   0.1520   5.4300e+06
   35   36    2   0.1120   3.7000e+07
   35   37    2   0.1120   3.7000e+07
   35   38    2   0.1520   5.4300e+06
   38   39    2   0.1120   3.7000e+07
   38   40    2   0.1120   3.7000e+07
   38   41    2   0.1520   5.4300e+06
   41   42    2   0.1120   3.7000e+07
   41   43    2   0.1120   3.7000e+07
   41   44    2   0.1520   5.4300e+06
   44   45    2   0.1120   3.7000e+07
   44   46    2   0.1120   3.7000e+07
   44   47    2   0.1520   5.4300e+06
   47   48    2   0.1120   3.7000e+07
   47   49    2   0.1120   3.7000e+07
   47   50    2   0.1520   5.4300e+06
   50   51    2   0.1120   3.7000e+07
   50   52    2   0.1120   3.7000e+07
   50   53    2   0.1520   5.4300e+06
   53   54    2   0.1120   3.7000e+07
   53   55    2   0.1120   3.7000e+07
   53   56    2   0.1520   5.4300e+06
   56   57    2   0.1120   3.7000e+07
   56   58    2   0.1120   3.7000e+07
   56   59    2   0.1520   5.4300e+06
   59   60    2   0.1120   3.7000e+07
   59   61    2   0.1120   3.7000e+07
   59   62    2   0.1520   5.4300e+06
   62   63    2   0.1120   3.7000e+07
   62   64    2   0.1120   3.7000e+07
   62   65    2   0.1520   5.4300e+06
   65   66    2   0.1120   3.7000e+07
   65   67    2   0.1120   3.7000e+07
   65   68    2   0.1520   5.4300e+06
   68   69    2   0.1120   3.7000e+07
   68   70    2   0.1120   3.7000e+07
   68   71    2   0.1520   5.4300e+06
   71   72    2   0.1120   3.7000e+07
   71   73    2   0.1120   3.7000e+07
   71   74    2   0.1520   5.4300e+06
   74   75    2   0.1120   3.7000e+07
   74   76    2   0.1120   3.7000e+07
   74   77    2   0.1520   5.4300e+06
   77   78    2   0.1120   3.7000e+07
   77   79    2   0.1120   3.7000e+07
   77   80    2   0.1520   5.4300e+06
   80   81    2   0.1120   3.7000e+07
   80   82    2   0.1120   3.7000e+07
   80   83    2   0.1520   5.4300e+06
   83   84    2   0.1120   3.7000e+07
   83   85    2   0.1120   3.7000e+07
   83   86    2   0.1520   5.4300e+06
   86   87    2   0.1120   3.7000e+07
   86   88    2   0.1120   3.7000e+07
   86   89    2   0.1520   5.4300e+06
   89   90    2   0.1120   3.7000e+07
   89   91    2   0.1120   3.7000e+07
   89   92    2   0.1520   5.4300e+06
   92   93    2   0.1120   3.7000e+07
   92   94    2   0.1120   3.7000e+07
   92   95    2   0.1520   5.4300e+06
   95   96    2   0.1120   3.7000e+07
   95   97    2   0.1120   3.7000e+07
   95   98    2   0.1520   5.4300e+06
   98   99    2   0.1120   3.7000e+07
   98  100    2   0.1120   3.7000e+07
   98  101    2   0.1520   5.4300e+06
  101  102    2   0.1120   3.7000e+07
  101  103    2   0.1120   3.7000e+07
  101  104    2   0.1520   5.4300e+06
  104  105    2   0.1120   3.7000e+07
  104  106    2   0.1120   3.7000e+07
  104  107    2   0.1520   5.4300e+06
  107  108    2   0.1120   3.7000e+07
  107  109    2   0.1120   3.7000e+07
  107  110    2   0.1520   5.4300e+06
  110  111    2   0.1120   3.7000e+07
  110  112    2   0.1120   3.7000e+07
  110  113    2   0.1520   5.4300e+06
  113  114    2   0.1120   3.7000e+07
  113  115    2   0.1120   3.7000e+07
  113  116    2   0.1520   5.4300e+06
  116  117    2   0.1120   3.7000e+07
  116  118    2   0.1120   3.7000e+07
  116  119    2   0.1520   5.4300e+06
  119  120    2   0.1120   3.7000e+07
  119  121    2   0.1120   3.7000e+07
  119  122    2   0.1520   5.4300e+06
  122  123    2   0.1120   3.7000e+07
  122  124    2   0.1120   3.7000e+07
  122  125    2   0.1520   5.4300e+06
  125  126    2   0.1120   3.7000e+07
  125  127    2   0.1120   3.7000e+07
  125  128    2   0.1520   5.4300e+06
  128  129    2   0.1120   3.7000e+07
  128  130    2   0.1120   3.7000e+07
  128  131    2   0.1520   5.4300e+06
  131  132    2   0.1120   3.7000e+07
  131  133    2   0.1120   3.7000e+07
  131  134    2   0.1520   5.4300e+06
  134  135    2   0.1120   3.7000e+07
  134  136    2   0.1120   3.7000e+07
  134  137    2   0.1520   5.4300e+06
  137  138    2   0.1120   3.7000e+07
  137  139    2   0.1120   3.7000e+07
  137  140    2   0.1520   5.4300e+06
  140  141    2   0.1120   3.7000e+07
  140  142    2   0.1120   3.7000e+07
  140  143    2   0.1520   5.4300e+06
  143  144    2   0.1120   3.7000e+07
  143  145    2   0.1120   3.7000e+07
  143  146    2   0.1520   5.4300e+06
  146  147    2   0.1120   3.7000e+07
  146  148    2   0.1120   3.7000e+07
  146  149    2   0.1520   5.4300e+06
  149  150    2   0.1120   3.7000e+07
  149  151    2   0.1120   3.7000e+07
  149  152    2   0.1520   5.4300e+06
  152  153    2   0.1120   3.7000e+07
  152  154    2   0.1120   3.7000e+07
  152  155    2   0.1520   5.4300e+06
  155  156    2   0.1120   3.7000e+07
  155  157    2   0.1120   3.7000e+07
  155  158    2   0.1520   5.4300e+06
  158  159    2   0.1120   3.7000e+07
  158  160    2   0.1120   3.7000e+07
  158  161    2   0.1520   5.4300e+06
  161  162    2   0.1120   3.7000e+07
  161  163    2   0.1120   3.7000e+07
  161  164    2   0.1520   5.4300e+06
  164  165    2   0.1120   3.7000e+07
  164  166    2   0.1120   3.7000e+07
  164  167    2   0.1520   5.4300e+06
  167  168    2   0.1120   3.7000e+07
  167  169    2   0.1120   3.7000e+07
  167  170    2   0.1520   5.4300e+06
  170  171    2   0.1120   3.7000e+07
  170  172    2   0.1120   3.7000e+07
  170  173    2   0.1520   5.4300e+06
  173  174    2   0.1120   3.7000e+07
  173  175    2   0.1120   3.7000e+07
  173  176    2   0.1520   5.4300e+06
  176  177    2   0.1120   3.7000e+07
  176  178    2   0.1120   3.7000e+07
  176  179    2   0.1510   3.7279e+06
  179  180    2   0.1120   3.7000e+07
  179  181    2   0.1120   3.7000e+07
  179  182    2   0.1120   3.7000e+07
[ pairs ]
;  ai   aj  funct  ;  all 1-4 pairs but the ones excluded in GROMOS itp
    1    6    1
    1    7    1
    1    8    1
    2    9    1
    2   10    1
    2   11    1
    3    6    1
    3    7    1
    3    8    1
    4    6    1
    4    7    1
    4    8    1
    5   12    1
    5   13    1
    5   14    1
    6    9    1
    6   10    1
    6   11    1
    7    9    1
    7   10    1
    7   11    1
    8   15    1
    8   16    1
    8   17    1
    9   12    1
    9   13    1
    9   14    1
   10   12    1
   10   13    1
   10   14    1
   11   18    1
   11   19    1
   11   20    1
   12   15    1
   12   16    1
   12   17    1
   13   15    1
   13   16    1
   13   17    1
   14   21    1
   14   22    1
   14   23    1
   15   18    1
   15   19    1
   15   20    1
   16   18    1
   16   19    1
   16   20    1
   17   24    1
   17   25    1
   17   26    1
   18   21    1
   18   22    1
   18   23    1
   19   21    1
   19   22    1
   19   23    1
   20   27    1
   20   28    1
   20   29    1
   21   24    1
   21   25    1
   21   26    1
   22   24    1
   22   25    1
   22   26    1
   23   30    1
   23   31    1
   23   32    1
   24   27    1
   24   28    1
   24   29    1
   25   27    1
   25   28    1
   25   29    1
   26   33    1
   26   34    1
   26   35    1
   27   30    1
   27   31    1
   27   32    1
   28   30    1
   28   31    1
   28   32    1
   29   36    1
   29   37    1
   29   38    1
   30   33    1
   30   34    1
   30   35    1
   31   33    1
   31   34    1
   31   35    1
   32   39    1
   32   40    1
   32   41    1
   33   36    1
   33   37    1
   33   38    1
   34   36    1
   34   37    1
   34   38    1
   35   42    1
   35   43    1
   35   44    1
   36   39    1
   36   40    1
   36   41    1
   37   39    1
   37   40    1
   37   41    1
   38   45    1
   38   46    1
   38   47    1
   39   42    1
   39   43    1
   39   44    1
   40   42    1
   40   43    1
   40   44    1
   41   48    1
   41   49    1
   41   50    1
   42   45    1
   42   46    1
   42   47    1
   43   45    1
   43   46    1
   43   47    1
   44   51    1
   44   52    1
   44   53    1
   45   48    1
   45   49    1
   45   50    1
   46   48    1
   46   49    1
   46   50    1
   47   54    1
   47   55    1
   47   56    1
   48   51    1
   48   52    1
   48   53    1
   49   51    1
   49   52    1
   49   53    1
   50   57    1
   50   58    1
   50   59    1
   51   54    1
   51   55    1
   51   56    1
   52   54    1
   52   55    1
   52   56    1
   53   60    1
   53   61    1
   53   62    1
   54   57    1
   54   58    1
   54   59    1
   55   57    1
   55   58    1
   55   59    1
   56   63    1
   56   64    1
   56   65    1
   57   60    1
   57   61    1
   57   62    1
   58   60    1
   58   61    1
   58   62    1
   59   66    1
   59   67    1
   59   68    1
   60   63    1
   60   64    1
   60   65    1
   61   63    1
   61   64    1
   61   65    1
   62   69    1
   62   70    1
   62   71    1
   63   66    1
   63   67    1
   63   68    1
   64   66    1
   64   67    1
   64   68    1
   65   72    1
   65   73    1
   65   74    1
   66   69    1
   66   70    1
   66   71    1
   67   69    1
   67   70    1
   67   71    1
   68   75    1
   68   76    1
   68   77    1
   69   72    1
   69   73    1
   69   74    1
   70   72    1
   70   73    1
   70   74    1
   71   78    1
   71   79    1
   71   80    1
   72   75    1
   72   76    1
   72   77    1
   73   75    1
   73   76    1
   73   77    1
   74   81    1
   74   82    1
   74   83    1
   75   78    1
   75   79    1
   75   80    1
   76   78    1
   76   79    1
   76   80    1
   77   84    1
   77   85    1
   77   86    1
   78   81    1
   78   82    1
   78   83    1
   79   81    1
   79   82    1
   79   83    1
   80   87    1
   80   88    1
   80   89    1
   81   84    1
   81   85    1
   81   86    1
   82   84    1
   82   85    1
   82   86    1
   83   90    1
   83   91    1
   83   92    1
   84   87    1
   84   88    1
   84   89    1
   85   87    1
   85   88    1
   85   89    1
   86   93    1
   86   94    1
   86   95    1
   87   90    1
   87   91    1
   87   92    1
   88   90    1
   88   91    1
   88   92    1
   89   96    1
   89   97    1
   89   98    1
   90   93    1
   90   94    1
   90   95    1
   91   93    1
   91   94    1
   91   95    1
   92   99    1
   92  100    1
   92  101    1
   93   96    1
   93   97    1
   93   98    1
   94   96    1
   94   97    1
   94   98    1
   95  102    1
   95  103    1
   95  104    1
   96   99    1
   96  100    1
   96  101    1
   97   99    1
   97  100    1
   97  101    1
   98  105    1
   98  106    1
   98  107    1
   99  102    1
   99  103    1
   99  104    1
  100  102    1
  100  103    1
  100  104    1
  101  108    1
  101  109    1
  101  110    1
  102  105    1
  102  106    1
  102  107    1
  103  105    1
  103  106    1
  103  107    1
  104  111    1
  104  112    1
  104  113    1
  105  108    1
  105  109    1
  105  110    1
  106  108    1
  106  109    1
  106  110    1
  107  114    1
  107  115    1
  107  116    1
  108  111    1
  108  112    1
  108  113    1
  109  111    1
  109  112    1
  109  113    1
  110  117    1
  110  118    1
  110  119    1
  111  114    1
  111  115    1
  111  116    1
  112  114    1
  112  115    1
  112  116    1
  113  120    1
  113  121    1
  113  122    1
  114  117    1
  114  118    1
  114  119    1
  115  117    1
  115  118    1
  115  119    1
  116  123    1
  116  124    1
  116  125    1
  117  120    1
  117  121    1
  117  122    1
  118  120    1
  118  121    1
  118  122    1
  119  126    1
  119  127    1
  119  128    1
  120  123    1
  120  124    1
  120  125    1
  121  123    1
  121  124    1
  121  125    1
  122  129    1
  122  130    1
  122  131    1
  123  126    1
  123  127    1
  123  128    1
  124  126    1
  124  127    1
  124  128    1
  125  132    1
  125  133    1
  125  134    1
  126  129    1
  126  130    1
  126  131    1
  127  129    1
  127  130    1
  127  131    1
  128  135    1
  128  136    1
  128  137    1
  129  132    1
  129  133    1
  129  134    1
  130  132    1
  130  133    1
  130  134    1
  131  138    1
  131  139    1
  131  140    1
  132  135    1
  132  136    1
  132  137    1
  133  135    1
  133  136    1
  133  137    1
  134  141    1
  134  142    1
  134  143    1
  135  138    1
  135  139    1
  135  140    1
  136  138    1
  136  139    1
  136  140    1
  137  144    1
  137  145    1
  137  146    1
  138  141    1
  138  142    1
  138  143    1
  139  141    1
  139  142    1
  139  143    1
  140  147    1
  140  148    1
  140  149    1
  141  144    1
  141  145    1
  141  146    1
  142  144    1
  142  145    1
  142  146    1
  143  150    1
  143  151    1
  143  152    1
  144  147    1
  144  148    1
  144  149    1
  145  147    1
  145  148    1
  145  149    1
  146  153    1
  146  154    1
  146  155    1
  147  150    1
  147  151    1
  147  152    1
  148  150    1
  148  151    1
  148  152    1
  149  156    1
  149  157    1
  149  158    1
  150  153    1
  150  154    1
  150  155    1
  151  153    1
  151  154    1
  151  155    1
  152  159    1
  152  160    1
  152  161    1
  153  156    1
  153  157    1
  153  158    1
  154  156    1
  154  157    1
  154  158    1
  155  162    1
  155  163    1
  155  164    1
  156  159    1
  156  160    1
  156  161    1
  157  159    1
  157  160    1
  157  161    1
  158  165    1
  158  166    1
  158  167    1
  159  162    1
  159  163    1
  159  164    1
  160  162    1
  160  163    1
  160  164    1
  161  168    1
  161  169    1
  161  170    1
  162  165    1
  162  166    1
  162  167    1
  163  165    1
  163  166    1
  163  167    1
  164  171    1
  164  172    1
  164  173    1
  165  168    1
  165  169    1
  165  170    1
  166  168    1
  166  169    1
  166  170    1
  167  174    1
  167  175    1
  167  176    1
  168  171    1
  168  172    1
  168  173    1
  169  171    1
  169  172    1
  169  173    1
  170  177    1
  170  178    1
  170  179    1
  171  174    1
  171  175    1
  171  176    1
  172  174    1
  172  175    1
  172  176    1
  173  180    1
  173  181    1
  173  182    1
  174  177    1
  174  178    1
  174  179    1
  175  177    1
  175  178    1
  175  179    1
  177  180    1
  177  181    1
  177  182    1
  178  180    1
  178  181    1
  178  182    1
[ angles ]
;  ai   aj   ak  funct   angle     fc
    1    2    3    2    108.53   443.00
    1    2    4    2    108.53   443.00
    1    2    5    2    110.30   524.00
    3    2    4    2    108.53   443.00
    3    2    5    2    110.30   524.00
    4    2    5    2    110.30   524.00
    2    5    6    2    109.60   450.00
    2    5    7    2    109.60   450.00
    2    5    8    2    111.00   530.00
    6    5    7    2    107.00  2726.16
    6    5    8    2    109.60   450.00
    7    5    8    2    109.60   450.00
    5    8    9    2    109.50   285.00
    5    8   10    2    109.50   285.00
    5    8   11    2    111.00   530.00
    9    8   10    2    107.00  2726.16
    9    8   11    2    109.60   450.00
   10    8   11    2    109.60   450.00
    8   11   12    2    109.60   450.00
    8   11   13    2    109.60   450.00
    8   11   14    2    111.00   530.00
   12   11   13    2    107.00  2726.16
   12   11   14    2    109.60   450.00
   13   11   14    2    109.60   450.00
   11   14   15    2    109.60   450.00
   11   14   16    2    109.60   450.00
   11   14   17    2    111.00   530.00
   15   14   16    2    107.00  2726.16
   15   14   17    2    109.60   450.00
   16   14   17    2    109.60   450.00
   14   17   18    2    109.50   285.00
   14   17   19    2    109.50   285.00
   14   17   20    2    111.00   530.00
   18   17   19    2    107.00  2726.16
   18   17   20    2    109.60   450.00
   19   17   20    2    109.60   450.00
   17   20   21    2    109.60   450.00
   17   20   22    2    109.60   450.00
   17   20   23    2    111.00   530.00
   21   20   22    2    107.00  2726.16
   21   20   23    2    109.00  1680.51
   22   20   23    2    109.00  1680.51
   20   23   24    2    109.00  1680.51
   20   23   25    2    109.00  1680.51
   20   23   26    2    111.00   530.00
   24   23   25    2    107.00  2726.16
   24   23   26    2    109.60   450.00
   25   23   26    2    109.60   450.00
   23   26   27    2    109.50   285.00
   23   26   28    2    109.50   285.00
   23   26   29    2    111.00   530.00
   27   26   28    2    107.00  2726.16
   27   26   29    2    110.00   285.00
   28   26   29    2    110.00   285.00
   26   29   30    2    109.50   285.00
   26   29   31    2    109.50   285.00
   26   29   32    2    111.00   530.00
   30   29   31    2    107.00  2726.16
   30   29   32    2    109.00  1680.51
   31   29   32    2    109.00  1680.51
   29   32   33    2    109.60   450.00
   29   32   34    2    109.60   450.00
   29   32   35    2    111.00   530.00
   33   32   34    2    107.00  2726.16
   33   32   35    2    109.00  1680.51
   34   32   35    2    109.00  1680.51
   32   35   36    2    109.60   450.00
   32   35   37    2    109.60   450.00
   32   35   38    2    111.00   530.00
   36   35   37    2    107.00  2726.16
   36   35   38    2    109.60   450.00
   37   35   38    2    109.60   450.00
   35   38   39    2    109.60   450.00
   35   38   40    2    109.60   450.00
   35   38   41    2    111.00   530.00
   39   38   40    2    107.00  2726.16
   39   38   41    2    109.60   450.00
   40   38   41    2    109.60   450.00
   38   41   42    2    109.60   450.00
   38   41   43    2    109.60   450.00
   38   41   44    2    111.00   530.00
   42   41   43    2    107.00  2726.16
   42   41   44    2    109.60   450.00
   43   41   44    2    109.60   450.00
   41   44   45    2    109.50   285.00
   41   44   46    2    109.50   285.00
   41   44   47    2    111.00   530.00
   45   44   46    2    107.00  2726.16
   45   44   47    2    109.60   450.00
   46   44   47    2    109.60   450.00
   44   47   48    2    109.60   450.00
   44   47   49    2    109.60   450.00
   44   47   50    2    111.00   530.00
   48   47   49    2    107.00  2726.16
   48   47   50    2    109.60   450.00
   49   47   50    2    109.60   450.00
   47   50   51    2    109.60   450.00
   47   50   52    2    109.60   450.00
   47   50   53    2    111.00   530.00
   51   50   52    2    107.00  2726.16
   51   50   53    2    109.50   285.00
   52   50   53    2    109.50   285.00
   50   53   54    2    109.60   450.00
   50   53   55    2    109.60   450.00
   50   53   56    2    111.00   530.00
   54   53   55    2    107.00  2726.16
   54   53   56    2    109.60   450.00
   55   53   56    2    109.60   450.00
   53   56   57    2    109.50   285.00
   53   56   58    2    109.50   285.00
   53   56   59    2    111.00   530.00
   57   56   58    2    107.00  2726.16
   57   56   59    2    109.00  1680.51
   58   56   59    2    109.00  1680.51
   56   59   60    2    109.60   450.00
   56   59   61    2    109.60   450.00
   56   59   62    2    111.00   530.00
   60   59   61    2    107.00  2726.16
   60   59   62    2    109.60   450.00
   61   59   62    2    109.60   450.00
   59   62   63    2    109.50   285.00
   59   62   64    2    109.50   285.00
   59   62   65    2    111.00   530.00
   63   62   64    2    107.00  2726.16
   63   62   65    2    109.60   450.00
   64   62   65    2    109.60   450.00
   62   65   66    2    109.50   285.00
   62   65   67    2    109.50   285.00
   62   65   68    2    111.00   530.00
   66   65   67    2    107.00  2726.16
   66   65   68    2    109.50   285.00
   67   65   68    2    109.50   285.00
   65   68   69    2    109.50   285.00
   65   68   70    2    109.50   285.00
   65   68   71    2    111.00   530.00
   69   68   70    2    107.00  2726.16
   69   68   71    2    109.60   450.00
   70   68   71    2    109.60   450.00
   68   71   72    2    109.50   285.00
   68   71   73    2    109.50   285.00
   68   71   74    2    111.00   530.00
   72   71   73    2    107.00  2726.16
   72   71   74    2    109.60   450.00
   73   71   74    2    109.60   450.00
   71   74   75    2    109.50   285.00
   71   74   76    2    109.50   285.00
   71   74   77    2    111.00   530.00
   75   74   76    2    107.00  2726.16
   75   74   77    2    109.00  1680.51
   76   74   77    2    109.00  1680.51
   74   77   78    2    109.50   285.00
   74   77   79    2    109.50   285.00
   74   77   80    2    111.00   530.00
   78   77   79    2    107.00  2726.16
   78   77   80    2    109.60   450.00
   79   77   80    2    109.60   450.00
   77   80   81    2    109.60   450.00
   77   80   82    2    109.60   450.00
   77   80   83    2    111.00   530.00
   81   80   82    2    107.00  2726.16
   81   80   83    2    109.00  1680.51
   82   80   83    2    109.00  1680.51
   80   83   84    2    109.60   450.00
   80   83   85    2    109.60   450.00
   80   83   86    2    111.00   530.00
   84   83   85    2    107.00  2726.16
   84   83   86    2    109.50   285.00
   85   83   86    2    109.50   285.00
   83   86   87    2    109.50   285.00
   83   86   88    2    109.50   285.00
   83   86   89    2    111.00   530.00
   87   86   88    2    107.00  2726.16
   87   86   89    2    109.00  1680.51
   88   86   89    2    109.00  1680.51
   86   89   90    2    109.50   285.00
   86   89   91    2    109.50   285.00
   86   89   92    2    111.00   530.00
   90   89   91    2    107.00  2726.16
   90   89   92    2    109.50   285.00
   91   89   92    2    109.50   285.00
   89   92   93    2    109.50   285.00
   89   92   94    2    109.50   285.00
   89   92   95    2    111.00   530.00
   93   92   94    2    107.00  2726.16
   93   92   95    2    109.50   285.00
   94   92   95    2    109.50   285.00
   92   95   96    2    109.00  1680.51
   92   95   97    2    109.00  1680.51
   92   95   98    2    111.00   530.00
   96   95   97    2    107.00  2726.16
   96   95   98    2    109.50   285.00
   97   95   98    2    109.50   285.00
   95   98   99    2    109.50   285.00
   95   98  100    2    109.50   285.00
   95   98  101    2    111.00   530.00
   99   98  100    2    107.00  2726.16
   99   98  101    2    109.60   450.00
  100   98  101    2    109.60   450.00
   98  101  102    2    109.00  1680.51
   98  101  103    2    109.00  1680.51
   98  101  104    2    111.00   530.00
  102  101  103    2    107.00  2726.16
  102  101  104    2    109.60   450.00
  103  101  104    2    109.60   450.00
  101  104  105    2    109.60   450.00
  101  104  106    2    109.60   450.00
  101  104  107    2    111.00   530.00
  105  104  106    2    107.00  2726.16
  105  104  107    2    109.50   285.00
  106  104  107    2    109.50   285.00
  104  107  108    2    109.00  1680.51
  104  107  109    2    109.00  1680.51
  104  107  110    2    111.00   530.00
  108  107  109    2    107.00  2726.16
  108  107  110    2    109.50   285.00
  109  107  110    2    109.50   285.00
  107  110  111    2    109.60   450.00
  107  110  112    2    109.60   450.00
  107  110  113    2    111.00   530.00
  111  110  112    2    107.00  2726.16
  111  110  113    2    109.50   285.00
  112  110  113    2    109.50   285.00
  110  113  114    2    109.60   450.00
  110  113  115    2    109.60   450.00
  110  113  116    2    111.00   530.00
  114  113  115    2    107.00  2726.16
  114  113  116    2    109.50   285.00
  115  113  116    2    109.50   285.00
  113  116  117    2    109.50   285.00
  113  116  118    2    109.50   285.00
  113  116  119    2    111.00   530.00
  117  116  118    2    107.00  2726.16
  117  116  119    2    109.50   285.00
  118  116  119    2    109.50   285.00
  116  119  120    2    109.60   450.00
  116  119  121    2    109.60   450.00
  116  119  122    2    111.00   530.00
  120  119  121    2    107.00  2726.16
  120  119  122    2    109.50   285.00
  121  119  122    2    109.50   285.00
  119  122  123    2    109.60   450.00
  119  122  124    2    109.60   450.00
  119  122  125    2    111.00   530.00
  123  122  124    2    107.00  2726.16
  123  122  125    2    109.60   450.00
  124  122  125    2    109.60   450.00
  122  125  126    2    109.00  1680.51
  122  125  127    2    109.00  1680.51
  122  125  128    2    111.00   530.00
  126  125  127    2    107.00  2726.16
  126  125  128    2    109.50   285.00
  127  125  128    2    109.50   285.00
  125  128  129    2    109.60   450.00
  125  128  130    2    109.60   450.00
  125  128  131    2    111.00   530.00
  129  128  130    2    107.00  2726.16
  129  128  131    2    109.60   450.00
  130  128  131    2    109.60   450.00
  128  131  132    2    109.50   285.00
  128  131  133    2    109.50   285.00
  128  131  134    2    111.00   530.00
  132  131  133    2    107.00  2726.16
  132  131  134    2    109.60   450.00
  133  131  134    2    109.60   450.00
  131  134  135    2    109.60   450.00
  131  134  136    2    109.60   450.00
  131  134  137    2    111.00   530.00
  135  134  136    2    107.00  2726.16
  135  134  137    2    109.60   450.00
  136  134  137    2    109.60   450.00
  134  137  138    2    109.60   450.00
  134  137  139    2    109.60   450.00
  134  137  140    2    111.00   530.00
  138  137  139    2    107.00  2726.16
  138  137  140    2    109.50   285.00
  139  137  140    2    109.50   285.00
  137  140  141    2    109.60   450.00
  137  140  142    2    109.60   450.00
  137  140  143    2    111.00   530.00
  141  140  142    2    107.00  2726.16
  141  140  143    2    109.60   450.00
  142  140  143    2    109.60   450.00
  140  143  144    2    109.60   450.00
  140  143  145    2    109.60   450.00
  140  143  146    2    111.00   530.00
  144  143  145    2    107.00  2726.16
  144  143  146    2    109.60   450.00
  145  143  146    2    109.60   450.00
  143  146  147    2    109.60   450.00
  143  146  148    2    109.60   450.00
  143  146  149    2    111.00   530.00
  147  146  148    2    107.00  2726.16
  147  146  149    2    109.60   450.00
  148  146  149    2    109.60   450.00
  146  149  150    2    109.00  1680.51
  146  149  151    2    109.00  1680.51
  146  149  152    2    111.00   530.00
  150  149  151    2    107.00  2726.16
  150  149  152    2    109.60   450.00
  151  149  152    2    109.60   450.00
  149  152  153    2    109.00  1680.51
  149  152  154    2    109.00  1680.51
  149  152  155    2    111.00   530.00
  153  152  154    2    107.00  2726.16
  153  152  155    2    109.50   285.00
  154  152  155    2    109.50   285.00
  152  155  156    2    110.00   285.00
  152  155  157    2    110.00   285.00
  152  155  158    2    111.00   530.00
  156  155  157    2    107.00  2726.16
  156  155  158    2    109.50   285.00
  157  155  158    2    109.50   285.00
  155  158  159    2    109.60   450.00
  155  158  160    2    109.60   450.00
  155  158  161    2    111.00   530.00
  159  158  160    2    107.00  2726.16
  159  158  161    2    109.00  1680.51
  160  158  161    2    109.00  1680.51
  158  161  162    2    109.00  1680.51
  158  161  163    2    109.00  1680.51
  158  161  164    2    111.00   530.00
  162  161  163    2    107.00  2726.16
  162  161  164    2    109.60   450.00
  163  161  164    2    109.60   450.00
  161  164  165    2    109.60   450.00
  161  164  166    2    109.60   450.00
  161  164  167    2    111.00   530.00
  165  164  166    2    107.00  2726.16
  165  164  167    2    109.50   285.00
  166  164  167    2    109.50   285.00
  164  167  168    2    109.60   450.00
  164  167  169    2    109.60   450.00
  164  167  170    2    111.00   530.00
  168  167  169    2    107.00  2726.16
  168  167  170    2    109.60   450.00
  169  167  170    2    109.60   450.00
  167  170  171    2    109.60   450.00
  167  170  172    2    109.60   450.00
  167  170  173    2    111.00   530.00
  171  170  172    2    107.00  2726.16
  171  170  173    2    109.60   450.00
  172  170  173    2    109.60   450.00
  170  173  174    2    109.60   450.00
  170  173  175    2    109.60   450.00
  170  173  176    2    111.00   530.00
  174  173  175    2    107.00  2726.16
  174  173  176    2    109.50   285.00
  175  173  176    2    109.50   285.00
  173  176  177    2    109.60   450.00
  173  176  178    2    109.60   450.00
  173  176  179    2    111.00   530.00
  177  176  178    2    107.00  2726.16
  177  176  179    2    109.60   450.00
  178  176  179    2    109.60   450.00
  176  179  180    2    110.30   524.00
  176  179  181    2    110.30   524.00
  176  179  182    2    110.30   524.00
  180  179  181    2    108.53   443.00
  180  179  182    2    108.53   443.00
  181  179  182    2    108.53   443.00
[ dihedrals ]
; GROMOS improper dihedrals
;  ai   aj   ak   al  funct   angle     fc
[ dihedrals ]
;  ai   aj   ak   al  funct    ph0      cp     mult
    2    5    8   11    1      0.00     5.92    3
    3    2    5    8    1      0.00     5.92    3
    5    8   11   14    1      0.00     5.92    3
    8   11   14   17    1      0.00     5.92    3
   11   14   17   20    1      0.00     5.92    3
   14   17   20   23    1      0.00     5.92    3
   17   20   23   26    1      0.00     5.92    3
   20   23   26   29    1      0.00     5.92    3
   23   26   29   32    1    180.00     1.00    3
   26   29   32   35    1      0.00     5.92    3
   29   32   35   38    1      0.00     5.92    3
   32   35   38   41    1      0.00     5.92    3
   35   38   41   44    1      0.00     5.92    3
   38   41   44   47    1      0.00     5.92    3
   41   44   47   50    1      0.00     5.92    3
   44   47   50   53    1      0.00     5.92    3
   47   50   53   56    1      0.00     5.92    3
   50   53   56   59    1      0.00     5.92    3
   53   56   59   62    1      0.00     5.92    3
   56   59   62   65    1      0.00     5.92    3
   59   62   65   68    1      0.00     5.92    3
   62   65   68   71    1      0.00     5.92    3
   65   68   71   74    1      0.00     5.92    3
   68   71   74   77    1      0.00     5.92    3
   71   74   77   80    1      0.00     5.92    3
   74   77   80   83    1      0.00     5.92    3
   77   80   83   86    1      0.00     5.92    3
   80   83   86   89    1      0.00     5.92    3
   83   86   89   92    1      0.00     5.92    3
   86   89   92   95    1      0.00     5.92    3
   89   92   95   98    1      0.00     5.92    3
   92   95   98  101    1      0.00     5.92    3
   95   98  101  104    1      0.00     5.92    3
   98  101  104  107    1      0.00     5.92    3
  101  104  107  110    1      0.00     5.92    3
  104  107  110  113    1      0.00     5.92    3
  107  110  113  116    1      0.00     5.92    3
  110  113  116  119    1      0.00     5.92    3
  113  116  119  122    1      0.00     5.92    3
  116  119  122  125    1      0.00     5.92    3
  119  122  125  128    1      0.00     5.92    3
  122  125  128  131    1      0.00     5.92    3
  125  128  131  134    1      0.00     5.92    3
  128  131  134  137    1      0.00     5.92    3
  131  134  137  140    1      0.00     5.92    3
  134  137  140  143    1      0.00     5.92    3
  137  140  143  146    1      0.00     5.92    3
  140  143  146  149    1      0.00     5.92    3
  143  146  149  152    1      0.00     5.92    3
  146  149  152  155    1      0.00     5.92    3
  149  152  155  158    1      0.00     5.92    3
  152  155  158  161    1      0.00     5.92    3
  155  158  161  164    1      0.00     5.92    3
  158  161  164  167    1      0.00     5.92    3
  161  164  167  170    1      0.00     5.92    3
  164  167  170  173    1      0.00     5.92    3
  167  170  173  176    1      0.00     5.92    3
  170  173  176  179    1      0.00     5.92    3
  173  176  179  180    1      0.00     5.92    3
[ exclusions ]
;  ai   aj  funct  ;  GROMOS 1-4 exclusions

