60_polymer in water
68189
    182NB  H122    1   6.179   5.492   4.325 -0.2618  0.7318  0.3070
    182NB   C60    2   6.087   5.480   4.263  0.1029  0.0915 -0.1086
    182NB  H120    3   6.010   5.554   4.296 -1.4029 -1.1414 -0.6901
    182NB  H121    4   6.108   5.497   4.154  0.5734 -0.2905 -0.0783
    182NB   C59    5   6.023   5.348   4.294 -0.3164  0.3524 -0.1176
    182NB  H118    6   5.928   5.321   4.241 -0.7484  0.8816  0.3874
    182NB  H119    7   6.101   5.273   4.264 -0.2626 -1.0628  3.1363
    182NB   C58    8   5.990   5.331   4.437 -0.5791 -0.1637  0.4487
    182NB  H116    9   5.982   5.437   4.472  0.9387  0.2063 -0.2288
    182NB  H117   10   5.889   5.284   4.449 -0.4036 -0.5672  0.3823
    182NB   C57   11   6.098   5.280   4.527 -0.0708  0.7790  0.4436
    182NB  H114   12   6.123   5.176   4.494  1.3123  0.2608  2.8642
    182NB  H115   13   6.192   5.340   4.515 -0.3737  0.6956 -4.0427
    182NB   C56   14   6.052   5.253   4.665 -0.4642  0.1021 -0.9264
    182NB  H112   15   6.008   5.346   4.711 -1.4912 -1.6459  1.8943
    182NB  H113   16   5.966   5.181   4.664 -2.6095  2.3800  1.4178
    182NB   C55   17   6.171   5.206   4.753  0.2931 -0.0620 -0.5256
    182NB  H110   18   6.257   5.276   4.738 -1.8285  3.0589  0.5870
    182NB  H111   19   6.134   5.223   4.858  0.9221 -3.2247  0.3166
    182NB   C54   20   6.217   5.065   4.744  0.0042  0.0438 -0.1390
    182NB  H108   21   6.251   5.032   4.643 -0.4704 -0.6995 -0.0634
    182NB  H109   22   6.303   5.061   4.815 -0.6279  0.4459  0.6640
    182NB   C53   23   6.113   4.968   4.794 -0.0282  0.2768 -1.0373
    182NB  H106   24   6.116   4.972   4.906  1.6898  1.1004 -1.0765
    182NB  H107   25   6.013   5.003   4.758  0.3223 -0.0896 -2.4317
    182NB   C52   26   6.125   4.826   4.746  0.5917  0.4880  0.3620
    182NB  H104   27   6.117   4.828   4.634  1.0583 -1.2230  0.2652
    182NB  H105   28   6.228   4.788   4.765  0.6389 -0.9305 -2.2819
    182NB   C51   29   6.020   4.730   4.805 -0.2525 -0.0024 -0.0202
    182NB  H102   30   6.071   4.630   4.804 -0.0253  0.1116 -0.7989
    182NB  H103   31   5.984   4.754   4.908  0.2367 -0.3804  0.2411
    182NB   C50   32   5.901   4.721   4.710 -0.3131  0.2809  0.3876
    182NB  H100   33   5.856   4.822   4.691  0.0734  0.1208 -1.6074
    182NB  H101   34   5.937   4.680   4.612 -0.5148  0.4788  0.2301
    182NB   C49   35   5.795   4.626   4.761  0.7563 -0.1590  0.2017
    182NB   H98   36   5.838   4.525   4.738  0.2054  0.0438 -1.8983
    182NB   H99   37   5.785   4.640   4.872  2.9217  3.0501  0.1146
    182NB   C48   38   5.661   4.619   4.684 -0.2829 -0.4805  0.0717
    182NB   H96   39   5.689   4.597   4.578  3.0185  0.6824  0.5756
    182NB   H97   40   5.594   4.536   4.718 -0.3799 -0.2905  0.3485
    182NB   C47   41   5.576   4.745   4.703  0.2107  0.0795  0.5432
    182NB   H94   42   5.562   4.761   4.813 -3.7006 -1.4206  0.4258
    182NB   H95   43   5.632   4.833   4.662 -0.6119  0.0882 -0.5859
    182NB   C46   44   5.437   4.732   4.641  0.1540 -0.1913  0.1008
    182NB   H92   45   5.381   4.638   4.665  0.5574 -0.4055  0.2176
    182NB   H93   46   5.368   4.814   4.674 -2.2868 -1.7197 -1.0292
    182NB   C45   47   5.438   4.750   4.490 -0.1252 -0.6061  0.2450
    182NB   H90   48   5.475   4.853   4.465 -0.9612 -0.5216 -0.7362
    182NB   H91   49   5.507   4.676   4.441  0.5182 -0.0968  0.3812
    182NB   C44   50   5.291   4.742   4.435  0.4059 -0.7358 -0.5098
    182NB   H88   51   5.245   4.641   4.451 -0.4217 -0.2750  0.0642
    182NB   H89   52   5.233   4.815   4.497 -0.4181  0.1166 -2.2157
    182NB   C43   53   5.284   4.781   4.285  0.2134  0.5060 -0.2052
    182NB   H86   54   5.329   4.881   4.261 -0.2919  0.0894 -3.3144
    182NB   H87   55   5.353   4.708   4.235  0.1713 -0.6130  1.2949
    182NB   C42   56   5.149   4.782   4.225 -0.5749  0.6819  0.2819
    182NB   H84   57   5.106   4.679   4.232  1.2251 -0.1601 -0.3151
    182NB   H85   58   5.080   4.852   4.279 -2.4631 -0.8207 -0.0928
    182NB   C41   59   5.153   4.818   4.073  0.2620 -0.4362 -0.3191
    182NB   H82   60   5.209   4.912   4.052 -2.1037  0.5640 -2.6343
    182NB   H83   61   5.197   4.739   4.007  0.4105  0.2421 -1.0416
    182NB   C40   62   5.009   4.834   4.026  0.4384  0.3335  0.4409
    182NB   H80   63   4.964   4.916   4.088 -2.2909 -0.2506 -0.6370
    182NB   H81   64   5.021   4.871   3.921  1.8483  0.0770  0.4872
    182NB   C39   65   4.913   4.715   4.033  0.0098  0.0825 -0.1536
    182NB   H78   66   4.947   4.632   3.966 -0.4155  0.4391 -0.8181
    182NB   H79   67   4.920   4.675   4.137  2.1617  1.1247  0.1545
    182NB   C38   68   4.777   4.767   3.991 -0.0620  0.0114  0.4967
    182NB   H76   69   4.753   4.831   4.080  0.2514  3.0225 -1.4680
    182NB   H77   70   4.779   4.836   3.904 -1.9581  0.6860  0.9353
    182NB   C37   71   4.659   4.665   3.977 -0.9524  0.3714 -0.3878
    182NB   H74   72   4.576   4.716   3.923  0.6323  1.5100 -1.8730
    182NB   H75   73   4.699   4.588   3.907 -2.2585  0.4623 -1.2549
    182NB   C36   74   4.633   4.599   4.116  0.0157  0.1564 -0.3832
    182NB   H72   75   4.720   4.536   4.150 -0.8110 -0.7284  0.1594
    182NB   H73   76   4.606   4.675   4.194 -3.8277  0.4034 -1.7506
    182NB   C35   77   4.509   4.510   4.109 -0.1790 -0.3513 -0.2879
    182NB   H70   78   4.424   4.565   4.061  0.8407  1.3778 -0.2170
    182NB   H71   79   4.535   4.423   4.043 -1.7010 -0.9511 -0.1257
    182NB   C34   80   4.465   4.449   4.239  0.7478  0.6340 -0.4361
    182NB   H68   81   4.559   4.403   4.280  1.3053  0.3221 -1.9794
    182NB   H69   82   4.426   4.526   4.311 -2.9614 -0.4459 -1.0914
    182NB   C33   83   4.360   4.337   4.211  0.1331 -0.2206 -0.2254
    182NB   H66   84   4.280   4.380   4.146 -1.6220  1.2472  2.6516
    182NB   H67   85   4.401   4.243   4.166  0.7768 -0.9279  1.6998
    182NB   C32   86   4.279   4.297   4.337  0.1511 -0.1196  0.5930
    182NB   H64   87   4.336   4.247   4.420 -1.0358 -3.7597 -0.5684
    182NB   H65   88   4.239   4.395   4.373  0.5514  0.1135  0.4072
    182NB   C31   89   4.165   4.196   4.308  0.2286 -0.5842 -0.5737
    182NB   H62   90   4.196   4.126   4.226 -0.8474 -1.1650 -0.4971
    182NB   H63   91   4.160   4.136   4.403  1.9870 -1.3946 -0.9593
    182NB   C30   92   4.042   4.269   4.253  0.2868  0.1802  0.2131
    182NB   H60   93   3.996   4.340   4.327  1.8690  0.4098  1.0167
    182NB   H61   94   4.067   4.327   4.161  0.7468 -3.2226 -1.9624
    182NB   C29   95   3.940   4.170   4.197  0.1170  0.5284 -0.0201
    182NB   H58   96   3.997   4.099   4.131  0.4572  1.2087 -0.4680
    182NB   H59   97   3.903   4.110   4.285 -0.6736  1.7119  0.4767
    182NB   C28   98   3.812   4.233   4.145  0.3849 -0.3204  0.1975
    182NB   H56   99   3.842   4.291   4.055 -0.8711 -0.4035 -0.3060
    182NB   H57  100   3.745   4.151   4.108  0.6845 -0.2115 -0.6077
    182NB   C27  101   3.720   4.323   4.235  0.3925  0.0080  0.1571
    182NB   H54  102   3.698   4.263   4.326 -1.6177  0.0470 -0.2465
    182NB   H55  103   3.772   4.416   4.268 -2.6569  1.6687  0.7084
    182NB   C26  104   3.591   4.368   4.173  0.1907  0.2897 -0.4804
    182NB   H52  105   3.614   4.460   4.113 -1.0244 -0.0235 -1.4649
    182NB   H53  106   3.559   4.289   4.101 -0.4611 -0.9887  1.1336
    182NB   C25  107   3.486   4.411   4.281 -0.1800 -0.2809 -0.0627
    182NB   H50  108   3.479   4.332   4.359 -1.2507 -0.9808 -0.8491
    182NB   H51  109   3.508   4.506   4.337 -0.1506 -1.5300  2.1608
    182NB   C24  110   3.345   4.425   4.208  0.2191  0.1536 -0.0230
    182NB   H48  111   3.346   4.513   4.139  1.9080 -0.1947 -0.4861
    182NB   H49  112   3.326   4.331   4.151 -3.1021 -0.8909  2.4577
    182NB   C23  113   3.223   4.439   4.307 -0.0738 -0.9626 -0.2241
    182NB   H46  114   3.231   4.538   4.360  0.2743 -1.9070  1.5794
    182NB   H47  115   3.133   4.444   4.240 -1.4862 -0.2088  1.6437
    182NB   C22  116   3.216   4.319   4.402 -0.4530  0.3299 -0.4560
    182NB   H44  117   3.216   4.215   4.358 -0.7500  0.3549 -0.5154
    182NB   H45  118   3.310   4.333   4.461 -0.1319  0.2083 -0.9276
    182NB   C21  119   3.101   4.331   4.496  0.6456  0.8155  0.2815
    182NB   H42  120   3.112   4.426   4.555  0.3642  0.9093  0.1885
    182NB   H43  121   3.004   4.340   4.440 -0.2885  1.3831  1.9328
    182NB   C20  122   3.101   4.214   4.592 -0.0760 -0.1491 -0.1072
    182NB   H40  123   3.127   4.115   4.547  0.2993 -0.1271  0.0557
    182NB   H41  124   3.174   4.233   4.676 -0.9908  1.3249  0.3855
    182NB   C19  125   2.959   4.201   4.654  0.1421 -0.5999 -0.3347
    182NB   H38  126   2.939   4.284   4.726 -0.1956 -2.2085  1.5301
    182NB   H39  127   2.879   4.204   4.576  0.4184  0.2944 -0.5884
    182NB   C18  128   2.943   4.074   4.727  0.7062  0.4331  0.3323
    182NB   H36  129   2.935   3.986   4.658 -1.2241 -0.4266  1.5648
    182NB   H37  130   3.027   4.051   4.797 -0.4797  0.2727  1.7703
    182NB   C17  131   2.816   4.062   4.811 -0.1960  0.0735  0.3210
    182NB   H34  132   2.811   4.143   4.888  1.4727  1.2782 -0.7614
    182NB   H35  133   2.731   4.080   4.740 -0.3489 -0.9487  0.2366
    182NB   C16  134   2.802   3.927   4.882 -0.1323 -0.3181 -0.3091
    182NB   H32  135   2.835   3.841   4.817 -1.4637 -1.3733  0.3618
    182NB   H33  136   2.863   3.917   4.975  0.4231 -0.2971 -0.6634
    182NB   C15  137   2.657   3.906   4.915  0.5299  0.1069 -0.6206
    182NB   H30  138   2.625   3.996   4.973 -1.2260  0.6950 -2.3793
    182NB   H31  139   2.592   3.910   4.824  0.0587  0.7167 -0.2690
    182NB   C14  140   2.630   3.776   4.983 -0.0750  0.5674 -0.4803
    182NB   H28  141   2.665   3.693   4.916  3.5763 -0.7383  2.6521
    182NB   H29  142   2.700   3.763   5.070 -0.2081 -2.9332 -0.7420
    182NB   C13  143   2.482   3.760   5.012 -0.3059  0.3871 -0.0055
    182NB   H26  144   2.444   3.853   5.061 -0.2376  0.9616 -1.0037
    182NB   H27  145   2.416   3.743   4.922 -0.7280  0.2595  0.3258
    182NB   C12  146   2.469   3.637   5.101  0.4952  0.2236  0.3243
    182NB   H24  147   2.531   3.555   5.056  0.1862 -0.5851  1.3344
    182NB   H25  148   2.509   3.655   5.205 -3.4181 -0.3556  2.1027
    182NB   C11  149   2.327   3.579   5.104 -0.2084 -0.8102 -0.0302
    182NB   H22  150   2.262   3.653   5.158  0.8928  0.5652 -0.5118
    182NB   H23  151   2.287   3.570   5.000  1.2750  0.2923 -0.7321
    182NB   C10  152   2.329   3.446   5.177  0.2212  0.1443 -0.4146
    182NB   H20  153   2.400   3.378   5.124  0.9563  2.2598 -2.2979
    182NB   H21  154   2.371   3.459   5.280  1.5313 -1.4463 -0.7061
    182NB    C9  155   2.186   3.391   5.187 -0.5382  0.4495  0.1593
    182NB   H18  156   2.106   3.466   5.212 -0.3463  0.0668  2.0455
    182NB   H19  157   2.160   3.353   5.085 -4.1586 -1.4958  1.6060
    182NB    C8  158   2.160   3.275   5.286 -0.2908  0.0835  0.1601
    182NB   H16  159   2.064   3.226   5.255 -0.3841  0.6845 -0.5227
    182NB   H17  160   2.241   3.198   5.275 -0.9055 -0.4362 -0.8371
    182NB    C7  161   2.149   3.315   5.432 -1.0397  1.0092 -0.7719
    182NB   H14  162   2.123   3.224   5.491 -0.8164  1.9313  0.8044
    182NB   H15  163   2.249   3.349   5.469 -1.5975  2.4632 -0.5035
    182NB    C6  164   2.036   3.415   5.466  0.2450 -0.0946 -0.0279
    182NB   H12  165   2.043   3.419   5.577  2.4015 -2.1537 -0.0160
    182NB   H13  166   2.052   3.519   5.427 -0.9087  0.1891  0.2226
    182NB    C5  167   1.902   3.367   5.411  0.5899  0.0845 -0.2599
    182NB   H10  168   1.906   3.360   5.299 -1.0551  0.7366 -0.3849
    182NB   H11  169   1.877   3.266   5.455  1.4981  0.3565  0.9449
    182NB    C4  170   1.780   3.465   5.442  0.7837  0.6330  0.3100
    182NB    H8  171   1.748   3.468   5.550  2.3257  2.2422  0.7708
    182NB    H9  172   1.817   3.567   5.414 -0.1844  0.4697 -1.6778
    182NB    C3  173   1.658   3.431   5.359  0.3493 -0.1988  0.0265
    182NB    H6  174   1.681   3.416   5.250 -0.0713 -0.1034 -0.0775
    182NB    H7  175   1.621   3.334   5.401  1.0573  0.5753  2.5677
    182NB    C2  176   1.542   3.528   5.373  0.9231 -0.0514  0.3877
    182NB    H4  177   1.450   3.484   5.326  0.8523 -0.6246  1.0502
    182NB    H5  178   1.520   3.532   5.483 -0.7305  0.0903  0.0853
    182NB    C1  179   1.574   3.669   5.317  0.2722  0.3535  0.7378
    182NB    H1  180   1.622   3.662   5.216  2.2903  3.5082  1.3472
    182NB    H2  181   1.489   3.735   5.289  0.7263  0.9730  0.7888
    182NB    H3  182   1.648   3.727   5.379  0.2546  0.8650  0.2833
    2SOL     OW  183   4.626   6.934   8.443  0.1976  0.1714 -0.3731
    2SOL    HW1  184   4.599   6.869   8.372 -2.5038  0.3126  0.4187
    2SOL    HW2  185   4.663   6.884   8.522 -0.5899 -0.3399 -0.3109
    3SOL     OW  186   8.486   7.051   8.478 -0.3792 -0.3342 -0.2114
    3SOL    HW1  187   8.513   7.132   8.530  0.3683 -0.9955  0.4602
    3SOL    HW2  188   8.436   6.989   8.537 -1.2333 -0.2295 -0.8142
    4SOL     OW  189   5.843   1.054   8.538 -0.3901  0.1612 -0.4399
    4SOL    HW1  190   5.840   1.107   8.622 -1.4411 -0.5607  0.0072
    4SOL    HW2  191   5.883   0.964   8.556  0.8359  0.5689 -1.0595
    5SOL     OW  192   5.924   7.388   5.672  0.1656  0.1813  0.5601
    5SOL    HW1  193   5.932   7.295   5.634 -2.4635 -0.8992  2.3958
    5SOL    HW2  194   5.997   7.403   5.739  2.2891  0.5716 -1.6803
    6SOL     OW  195   7.184   0.470   8.043  0.4582  0.3117 -0.4941
    6SOL    HW1  196   7.240   0.533   7.990  2.6600  0.5901  1.9618
    6SOL    HW2  197   7.226   0.379   8.043 -0.8159 -0.3050 -1.1457
    7SOL     OW  198   6.344   4.900   5.954  0.0670  0.0951  0.0488
    7SOL    HW1  199   6.432   4.937   5.925 -0.4897  0.2279 -1.5208
    7SOL    HW2  200   6.328   4.925   6.050  0.3138  2.7884 -0.5284
    8SOL     OW  201   1.926   2.618   2.239 -0.0631  0.4438 -0.3750
    8SOL    HW1  202   1.875   2.605   2.324  0.9120 -0.5375  0.0782
    8SOL    HW2  203   1.883   2.565   2.166  0.8368 -1.1714  0.2338
    9SOL     OW  204   1.206   5.544   4.090 -0.0126 -0.4156  0.8188
    9SOL    HW1  205   1.297   5.586   4.085  0.4022 -1.1084  2.1698
    9SOL    HW2  206   1.210   5.463   4.148 -1.9374  0.7200  2.6513
   10SOL     OW  207   3.847   0.030   0.848  0.0993 -0.0779  0.0133
   10SOL    HW1  208   3.875  -0.003   0.938  0.4260  0.3290  0.0641
   10SOL    HW2  209   3.923   0.081   0.807 -0.7661  1.5780  0.4127
   11SOL     OW  210   2.148   8.353   2.672  0.3451  0.2298  0.2612
   11SOL    HW1  211   2.155   8.437   2.725 -2.3958  1.4628 -1.1870
   11SOL    HW2  212   2.235   8.335   2.626  1.3707  1.5148  1.6185
   12SOL     OW  213   8.244   4.902   2.196 -1.2875  0.5360 -0.0270
   12SOL    HW1  214   8.300   4.977   2.160 -0.5233 -0.2678 -0.5461
   12SOL    HW2  215   8.296   4.851   2.265 -0.2095 -1.9224 -2.4477
   13SOL     OW  216   7.461   0.724   4.918  0.2154 -0.5619 -0.5791
   13SOL    HW1  217   7.403   0.726   4.837 -2.2881  0.4988  1.1077
   13SOL    HW2  218   7.554   0.751   4.893 -0.3708 -0.6266 -3.1105
   14SOL     OW  219   7.169   0.972   0.892  0.2078 -0.5422 -0.0684
   14SOL    HW1  220   7.247   0.974   0.955  0.3187  0.0584 -0.2159
   14SOL    HW2  221   7.121   1.060   0.896 -1.1918 -1.3033  0.9174
   15SOL     OW  222   2.489   1.120   7.140  0.4004  1.2522 -0.4158
   15SOL    HW1  223   2.411   1.061   7.158 -0.2141  2.3841  0.8400
   15SOL    HW2  224   2.528   1.098   7.050 -0.3036 -0.4582 -0.3404
   16SOL     OW  225   5.381   5.797   7.656 -0.5258  0.2892 -0.0227
   16SOL    HW1  226   5.476   5.766   7.662 -0.8234 -0.3378  2.0912
   16SOL    HW2  227   5.327   5.728   7.608 -0.2644 -0.2048  0.3915
   17SOL     OW  228   3.697   1.296   3.438 -0.0272 -0.0384 -0.2019
   17SOL    HW1  229   3.622   1.359   3.457 -1.2989 -1.9290  1.4377
   17SOL    HW2  230   3.660   1.209   3.405  1.3917 -1.1440  0.9862
   18SOL     OW  231   7.291   2.129   1.847 -0.1354 -0.5829 -0.2090
   18SOL    HW1  232   7.215   2.134   1.912  1.1540 -1.4406  1.4108
   18SOL    HW2  233   7.361   2.196   1.872  0.3338 -0.8527 -0.7681
   19SOL     OW  234   0.144   0.889   1.573 -0.4167  0.0769 -0.1948
   19SOL    HW1  235   0.180   0.960   1.634 -0.2315 -1.0760  1.0805
   19SOL    HW2  236   0.044   0.893   1.575 -0.4080  0.4155 -0.2759
   20SOL     OW  237   5.990   7.991   4.720  0.8026 -0.0459 -0.0453
   20SOL    HW1  238   6.086   7.991   4.690  0.2689  0.0760 -1.8739
   20SOL    HW2  239   5.960   8.085   4.736  0.7165 -0.0162 -0.3868
   21SOL     OW  240   4.361   8.256   5.334 -0.0591  0.0134 -0.1220
   21SOL    HW1  241   4.370   8.320   5.411  3.3728 -1.6034  1.0317
   21SOL    HW2  242   4.333   8.166   5.369  1.7266 -0.7893 -0.6394
   22SOL     OW  243   4.952   0.256   0.528 -0.2490 -0.3243 -0.2890
   22SOL    HW1  244   4.922   0.182   0.589 -0.0021 -0.8915 -0.8418
   22SOL    HW2  245   4.926   0.344   0.567  1.5347 -0.5360  1.5946
   23SOL     OW  246   0.154   1.638   1.085  0.4706 -0.2968 -0.4872
   23SOL    HW1  247   0.248   1.628   1.052  0.7028 -2.7408  0.7126
   23SOL    HW2  248   0.154   1.656   1.183 -0.3355  2.5317 -0.8899
   24SOL     OW  249   7.499   3.724   5.290 -0.3449  0.2976 -0.6463
   24SOL    HW1  250   7.401   3.721   5.309 -0.2280 -0.0935 -0.0958
   24SOL    HW2  251   7.550   3.734   5.375  0.0590  1.4421 -1.0080
   25SOL     OW  252   3.083   4.469   6.030  0.4798  0.1231 -0.5258
   25SOL    HW1  253   3.027   4.386   6.033 -0.7985  0.9650  1.5687
   25SOL    HW2  254   3.172   4.448   5.991  0.5260 -2.4361  0.7253
   26SOL     OW  255   8.558   0.946   7.407 -0.0409 -0.4461  0.6737
   26SOL    HW1  256   8.580   0.867   7.349  0.7623  0.3281 -0.0913
   26SOL    HW2  257   8.495   1.006   7.358  1.1764  0.5585  0.3150
   27SOL     OW  258   3.464   6.081   2.779 -0.8304 -0.2234  0.1154
   27SOL    HW1  259   3.420   6.160   2.737 -1.0662 -0.7822 -0.7080
   27SOL    HW2  260   3.445   5.999   2.725 -1.3352 -1.0102  1.4349
   28SOL     OW  261   7.507   7.303   7.449 -0.1514 -0.1428 -0.2194
   28SOL    HW1  262   7.461   7.225   7.407  0.5015 -0.3086 -0.6481
   28SOL    HW2  263   7.493   7.301   7.548  0.1331 -0.9974 -0.1849
   29SOL     OW  264   7.805   1.796   5.146 -0.1414 -0.3523  0.1227
   29SOL    HW1  265   7.890   1.770   5.100 -0.2127  0.9549 -0.7977
   29SOL    HW2  266   7.826   1.854   5.225 -0.2033  0.7829 -0.6764
   30SOL     OW  267   1.953   7.397   2.825  0.9008  0.1205  0.0875
   30SOL    HW1  268   1.996   7.307   2.822  2.7476  0.5148  5.2855
   30SOL    HW2  269   2.024   7.467   2.831 -0.3854  1.3163  2.7177
   31SOL     OW  270   1.109   5.389   8.741 -0.0728 -0.3814  0.5526
   31SOL    HW1  271   1.139   5.446   8.665 -0.1350  0.0218  0.8300
   31SOL    HW2  272   1.084   5.298   8.706  3.7823 -1.6232  0.6063
   32SOL     OW  273   5.027   6.816   3.597 -0.2152  0.1634 -0.2791
   32SOL    HW1  274   5.062   6.793   3.507  0.8062  0.3827  0.0551
   32SOL    HW2  275   5.059   6.750   3.664 -0.5817  0.2709  0.0102
   33SOL     OW  276   7.132   3.925   0.077 -0.2514  0.3526 -0.2269
   33SOL    HW1  277   7.056   3.966   0.027  0.3817  1.5793 -0.2225
   33SOL    HW2  278   7.157   3.839   0.033 -2.1549 -0.5073  0.2728
   34SOL     OW  279   0.882   4.255   8.493  0.3084 -1.1557 -0.2383
   34SOL    HW1  280   0.946   4.182   8.517  1.0551 -0.3555  0.2540
   34SOL    HW2  281   0.885   4.327   8.562 -0.2299 -0.5276 -0.8466
   35SOL     OW  282   8.454   5.646   1.903 -0.1640 -0.0365  0.0284
   35SOL    HW1  283   8.530   5.711   1.909  0.3414 -0.5677 -0.4767
   35SOL    HW2  284   8.417   5.647   1.810 -0.4937 -0.1111  0.1553
   36SOL     OW  285   3.580   5.342   4.349  0.1339  0.0360 -0.1992
   36SOL    HW1  286   3.509   5.285   4.390 -0.1598  0.9503  0.5732
   36SOL    HW2  287   3.573   5.435   4.383  0.8199  0.4777 -1.2028
   37SOL     OW  288   1.257   2.734   1.802  0.1699 -0.0208 -0.0033
   37SOL    HW1  289   1.300   2.649   1.771  1.0164  0.1857  0.5543
   37SOL    HW2  290   1.177   2.753   1.746 -1.3093 -2.2877  1.1940
   38SOL     OW  291   0.755   3.397   6.637  0.6159 -0.3473  0.4543
   38SOL    HW1  292   0.783   3.454   6.560 -1.8742  0.5314  0.0965
   38SOL    HW2  293   0.810   3.419   6.717  0.9160  1.2897 -0.1658
   39SOL     OW  294   1.074   7.192   0.434 -0.3051 -0.4868 -0.0330
   39SOL    HW1  295   1.004   7.129   0.401 -0.6863 -1.0202  1.6691
   39SOL    HW2  296   1.038   7.285   0.435 -1.8956 -1.0269  2.9514
   40SOL     OW  297   5.877   5.350   0.676  0.1115 -0.0860  0.0785
   40SOL    HW1  298   5.966   5.376   0.713 -0.8652 -0.1507  2.7380
   40SOL    HW2  299   5.882   5.257   0.639  0.9079 -0.5778  1.3344
   41SOL     OW  300   0.848   2.465   1.875 -0.0592  0.0185 -0.2171
   41SOL    HW1  301   0.897   2.552   1.866 -0.0217 -0.1907 -2.5465
   41SOL    HW2  302   0.906   2.399   1.922  0.0505  1.1103  1.2543
   42SOL     OW  303   5.005   4.338   8.788  0.0074 -0.6733 -0.1743
   42SOL    HW1  304   4.966   4.364   8.699 -1.5425  0.7091  0.8587
   42SOL    HW2  305   4.947   4.268   8.830 -1.4128  1.2972  1.3110
   43SOL     OW  306   3.325   6.529   7.326 -1.0074 -0.4780 -0.3074
   43SOL    HW1  307   3.311   6.524   7.425 -3.7573 -2.9852 -0.6607
   43SOL    HW2  308   3.254   6.588   7.286 -0.3811 -0.0958 -0.8658
   44SOL     OW  309   3.977   0.472   7.064  0.0388 -0.0868 -0.1658
   44SOL    HW1  310   3.895   0.522   7.091 -0.5548 -0.1135 -1.8387
   44SOL    HW2  311   3.989   0.393   7.124 -0.8358  0.2359  0.4528
   45SOL     OW  312   3.616   0.546   0.825 -1.0049  0.1682  0.1678
   45SOL    HW1  313   3.520   0.522   0.840 -0.8505 -0.7214 -0.2005
   45SOL    HW2  314   3.647   0.505   0.739 -0.9170  2.2779 -0.8703
   46SOL     OW  315   7.101   2.594   2.027 -0.1124 -0.8647  0.0953
   46SOL    HW1  316   7.093   2.509   2.078 -0.6156 -1.1401 -0.4312
   46SOL    HW2  317   7.161   2.580   1.948  0.8159 -0.3908  0.6989
   47SOL     OW  318   6.109   7.955   5.406 -0.2966 -0.3096 -0.1356
   47SOL    HW1  319   6.069   7.907   5.327 -0.3800 -0.1016 -0.2214
   47SOL    HW2  320   6.099   7.899   5.488 -1.7671  0.2142  0.0615
   48SOL     OW  321   6.765   8.134   1.434 -0.6155 -0.4704  0.6412
   48SOL    HW1  322   6.753   8.214   1.376 -0.5425 -0.4904  0.5980
   48SOL    HW2  323   6.676   8.095   1.457 -0.6078 -1.7662 -1.2693
   49SOL     OW  324   6.923   3.664   2.027  0.2799  0.0599  0.1122
   49SOL    HW1  325   6.997   3.726   1.999  0.0634  0.0970 -0.3927
   49SOL    HW2  326   6.867   3.708   2.097 -0.6671  0.9813 -1.1885
   50SOL     OW  327   5.449   0.514   2.315 -0.5654 -0.6747  0.0416
   50SOL    HW1  328   5.545   0.543   2.323 -1.2630  1.8326 -0.0459
   50SOL    HW2  329   5.446   0.415   2.300  2.0270 -0.7727 -0.3212
   51SOL     OW  330   2.341   1.121   6.765  0.2266  0.0118  0.1279
   51SOL    HW1  331   2.325   1.025   6.745  3.9655 -0.3021 -2.3724
   51SOL    HW2  332   2.270   1.155   6.827 -1.3832 -4.1971  0.8916
   52SOL     OW  333   7.579   2.732   4.453 -0.2692 -0.4483  0.2570
   52SOL    HW1  334   7.498   2.672   4.452 -1.1213  0.6616 -1.0816
   52SOL    HW2  335   7.660   2.677   4.433 -0.7158 -1.5260  1.2482
   53SOL     OW  336   7.184   8.299   2.105 -0.0787  0.4384  0.4294
   53SOL    HW1  337   7.281   8.293   2.131 -0.4489 -0.4687  1.7207
   53SOL    HW2  338   7.177   8.330   2.010  1.5239 -0.6795 -0.1076
   54SOL     OW  339   6.697   4.357   5.323  0.4265  0.1758  0.6355
   54SOL    HW1  340   6.718   4.446   5.364 -0.2126  1.0171 -0.7846
   54SOL    HW2  341   6.616   4.318   5.367  0.7005  0.2990  1.2560
   55SOL     OW  342   6.015   8.506   4.657  0.2724  0.5505 -0.0020
   55SOL    HW1  343   5.991   8.544   4.567  0.0962  1.1963  0.3141
   55SOL    HW2  344   6.103   8.544   4.687  1.4263 -1.2807 -0.8419
   56SOL     OW  345   4.117   4.582   3.327  0.0954  0.4174 -0.2169
   56SOL    HW1  346   4.025   4.590   3.289  0.7262 -0.1665 -1.9697
   56SOL    HW2  347   4.142   4.485   3.333  0.5812  0.5705  0.2808
   57SOL     OW  348   2.078   0.625   5.143  0.6340  0.4355  0.0332
   57SOL    HW1  349   2.110   0.671   5.225  1.1604  0.9243 -0.4425
   57SOL    HW2  350   2.133   0.653   5.065  0.5064 -0.4521 -0.3957
   58SOL     OW  351   4.658   3.602   7.332 -0.4682  0.1810 -0.0830
   58SOL    HW1  352   4.670   3.505   7.311  0.9683 -0.2540  2.3595
   58SOL    HW2  353   4.747   3.645   7.343 -1.0852  1.3653  0.4899
   59SOL     OW  354   0.462   2.966   6.594  0.1263  0.0189 -0.3208
   59SOL    HW1  355   0.433   2.918   6.676  0.5102  0.8701  0.3332
   59SOL    HW2  356   0.526   3.039   6.619 -1.0176  1.3669 -1.1706
   60SOL     OW  357   7.730   0.536   1.676  0.0804 -0.0450 -0.2129
   60SOL    HW1  358   7.739   0.451   1.727 -2.0633 -0.6190 -0.6895
   60SOL    HW2  359   7.657   0.591   1.717 -0.4297  0.3050 -1.5455
   61SOL     OW  360   1.338   1.882   6.959  0.1245 -0.1919  0.6802
   61SOL    HW1  361   1.288   1.911   6.878 -0.2463  4.5368  2.2785
   61SOL    HW2  362   1.275   1.837   7.023 -1.0323  1.2907  0.6419
   62SOL     OW  363   3.614   4.618   5.909  0.2902 -0.6254 -0.3700
   62SOL    HW1  364   3.583   4.530   5.873  0.2082 -0.4883 -0.6421
   62SOL    HW2  365   3.537   4.666   5.951  0.0866 -0.2185 -1.1826
   63SOL     OW  366   3.657   6.369   0.699  0.2436 -0.6781  0.0256
   63SOL    HW1  367   3.678   6.271   0.698 -0.2488 -0.7864 -0.0408
   63SOL    HW2  368   3.558   6.382   0.684  0.4473 -0.1345 -0.9566
   64SOL     OW  369   3.524   1.894   2.984  0.1654  0.0971  0.2265
   64SOL    HW1  370   3.455   1.872   2.915 -0.0365  0.0886  0.4304
   64SOL    HW2  371   3.575   1.811   3.007  1.3912  0.4363 -1.1660
   65SOL     OW  372   0.580   0.056   4.556  0.2264  0.4018  0.0859
   65SOL    HW1  373   0.517   0.070   4.632  1.4336  1.4215  0.9299
   65SOL    HW2  374   0.632  -0.028   4.571 -0.5692 -0.1976 -0.3884
   66SOL     OW  375   5.597   4.704   6.229  0.6167  0.4827  0.0468
   66SOL    HW1  376   5.516   4.731   6.281  0.6060 -0.3473  0.4776
   66SOL    HW2  377   5.667   4.775   6.236 -0.9912  2.4545 -2.4805
   67SOL     OW  378   5.394   6.409   4.311  0.3528 -0.5266 -0.2528
   67SOL    HW1  379   5.437   6.442   4.227  3.5610  0.9870  1.7484
   67SOL    HW2  380   5.351   6.486   4.359  2.1385 -0.4224  1.3247
   68SOL     OW  381   5.279   5.569   6.040  0.4400 -0.1364 -0.0472
   68SOL    HW1  382   5.296   5.654   6.090  0.7346 -0.1589 -0.1103
   68SOL    HW2  383   5.262   5.590   5.944 -1.5028  0.0483  0.2796
   69SOL     OW  384   1.589   7.942   8.478 -0.2553 -0.0654 -0.0211
   69SOL    HW1  385   1.675   7.899   8.508 -0.9809 -0.7534  1.1406
   69SOL    HW2  386   1.610   8.024   8.426  1.1154 -0.1695  0.3175
   70SOL     OW  387   6.413   0.639   4.834  0.1276 -0.3400  0.1909
   70SOL    HW1  388   6.439   0.707   4.766  2.7449  0.3619  1.7481
   70SOL    HW2  389   6.393   0.684   4.921 -1.8098 -1.3290  0.3262
   71SOL     OW  390   2.425   0.688   7.067  0.0474  0.1016  1.1434
   71SOL    HW1  391   2.517   0.660   7.096  0.0306 -1.8937 -0.5373
   71SOL    HW2  392   2.380   0.613   7.020 -0.4536  2.5085 -2.7347
   72SOL     OW  393   3.683   6.141   2.279 -0.3094  0.2150  0.6309
   72SOL    HW1  394   3.782   6.153   2.263 -0.1766 -1.7436 -0.3335
   72SOL    HW2  395   3.639   6.231   2.283  1.4935  1.1277  1.0253
   73SOL     OW  396   5.029   6.252   8.833 -0.1741  0.2381 -0.6619
   73SOL    HW1  397   5.112   6.250   8.777  1.0035 -0.2833  1.0131
   73SOL    HW2  398   4.962   6.314   8.792 -0.3130 -1.7984 -3.8570
   74SOL     OW  399   6.560   7.330   0.300 -0.0701  0.0803  0.4661
   74SOL    HW1  400   6.604   7.256   0.250  1.0013  0.8317  0.2654
   74SOL    HW2  401   6.576   7.319   0.398  1.0733  0.6562  0.3539
   75SOL     OW  402   7.308   3.592   3.305  0.2462 -0.0969  0.1074
   75SOL    HW1  403   7.363   3.628   3.230  2.4202 -1.6119  0.8625
   75SOL    HW2  404   7.360   3.520   3.352 -1.3788  0.2181  2.5381
   76SOL     OW  405   1.753   2.641   2.451  0.0444  0.7922 -0.3075
   76SOL    HW1  406   1.684   2.577   2.417  1.0698 -0.7895  0.4680
   76SOL    HW2  407   1.708   2.715   2.501 -1.2479  1.3867 -2.2432
   77SOL     OW  408   3.745   2.841   7.266  0.6181  0.0029 -0.3700
   77SOL    HW1  409   3.823   2.894   7.297  0.5523 -0.6492  0.9509
   77SOL    HW2  410   3.718   2.776   7.336 -1.5223  0.6441 -0.5154
   78SOL     OW  411   2.073   4.311   7.426  0.0034 -0.1682  0.4455
   78SOL    HW1  412   1.974   4.297   7.425  0.1925 -1.7739 -1.0946
   78SOL    HW2  413   2.111   4.279   7.512 -0.8683  1.1657  1.3652
   79SOL     OW  414   2.555   4.980   5.696 -0.0894 -0.0548  0.1638
   79SOL    HW1  415   2.520   5.018   5.610  0.2200 -0.6101 -0.2149
   79SOL    HW2  416   2.600   4.893   5.678  1.3481  0.5489  0.6513
   80SOL     OW  417   5.198   4.563   6.962  0.0503 -0.6255 -0.4152
   80SOL    HW1  418   5.144   4.643   6.937  0.5439  0.1309  0.8585
   80SOL    HW2  419   5.137   4.485   6.974 -0.4680 -0.3895 -1.3857
   81SOL     OW  420   1.075   1.902   5.636  0.1230  0.4986  0.1519
   81SOL    HW1  421   1.169   1.930   5.617  0.5899 -1.1723 -0.2284
   81SOL    HW2  422   1.017   1.924   5.558  0.0470  2.0577  0.6173
   82SOL     OW  423   2.543   3.458   7.955  0.3993 -0.0563 -0.0385
   82SOL    HW1  424   2.538   3.480   8.052  0.1424  0.5629 -0.1837
   82SOL    HW2  425   2.639   3.458   7.925  0.3990  1.6213 -0.1768
   83SOL     OW  426   7.223   7.688   0.893  0.4255 -0.3519  0.6005
   83SOL    HW1  427   7.306   7.711   0.944 -0.0869 -0.0209  1.2969
   83SOL    HW2  428   7.179   7.608   0.936  0.3428 -0.4804  0.2767
   84SOL     OW  429   0.605   3.150   3.213 -0.3415  0.8343  0.1615
   84SOL    HW1  430   0.682   3.149   3.150 -1.1215  1.4617 -0.8345
   84SOL    HW2  431   0.594   3.060   3.255  1.8411  1.1071  1.4933
   85SOL     OW  432   1.699   7.290   3.351 -0.2451 -0.3881  0.1777
   85SOL    HW1  433   1.789   7.298   3.308 -0.2099 -2.4969 -0.2500
   85SOL    HW2  434   1.669   7.380   3.384  1.6729  0.4776 -0.3301
   86SOL     OW  435   6.681   4.550   8.123 -0.3566  0.1042  0.0748
   86SOL    HW1  436   6.593   4.588   8.153 -1.4737 -1.3139 -1.2143
   86SOL    HW2  437   6.666   4.490   8.044  1.3346 -2.5712  1.6484
   87SOL     OW  438   0.129   4.233   1.099  0.0336  0.1846 -0.1183
   87SOL    HW1  439   0.078   4.316   1.121  0.8021  0.8946 -0.9281
   87SOL    HW2  440   0.065   4.160   1.076 -0.6425  0.9192 -0.6400
   88SOL     OW  441   3.542   6.951   3.596  0.4985  0.2308 -0.9224
   88SOL    HW1  442   3.490   7.015   3.654  0.7307 -0.2020 -0.2228
   88SOL    HW2  443   3.635   6.985   3.583  0.8141 -0.2586 -0.0283
   89SOL     OW  444   5.384   4.425   0.546  0.6885 -0.5391  0.8223
   89SOL    HW1  445   5.391   4.453   0.642 -0.1849 -1.8289  1.2946
   89SOL    HW2  446   5.474   4.394   0.514  1.1918  0.7727  0.9163
   90SOL     OW  447   0.220   1.363   7.459 -0.2774 -0.1551  0.2806
   90SOL    HW1  448   0.288   1.405   7.519  1.1101  0.0909 -1.3747
   90SOL    HW2  449   0.250   1.272   7.431 -1.3852 -0.6783  0.7283
   91SOL     OW  450   1.132   6.856   0.106 -0.2197 -0.1646  0.2745
   91SOL    HW1  451   1.111   6.810   0.192 -0.6641 -0.8202 -0.1726
   91SOL    HW2  452   1.091   6.805   0.030 -1.4148  1.3817 -0.1802
   92SOL     OW  453   0.372   1.171   4.836 -0.1590  0.5913  0.2331
   92SOL    HW1  454   0.446   1.181   4.770 -0.0398  1.6652  0.5030
   92SOL    HW2  455   0.364   1.076   4.864  0.6585  0.3498 -0.3323
   93SOL     OW  456   4.591   4.352   3.415  0.4024  0.5518 -0.1942
   93SOL    HW1  457   4.684   4.315   3.404 -1.1160 -3.4863 -1.6270
   93SOL    HW2  458   4.574   4.420   3.344  2.3370  1.7216  0.3734
   94SOL     OW  459   3.820   8.338   3.630  0.1186  0.0351 -0.1865
   94SOL    HW1  460   3.792   8.290   3.712 -0.5255  0.6028 -0.0639
   94SOL    HW2  461   3.865   8.424   3.655  0.5019 -0.0942 -0.4156
   95SOL     OW  462   3.396   0.532   7.560 -0.5401  0.4510 -0.3530
   95SOL    HW1  463   3.318   0.511   7.501  1.0328 -1.7487 -1.8337
   95SOL    HW2  464   3.365   0.545   7.654 -2.6021 -1.2634 -0.7191
   96SOL     OW  465   4.776   1.431   2.948  0.1558 -0.3288  0.4501
   96SOL    HW1  466   4.824   1.457   3.031  1.6732 -0.9647 -0.1854
   96SOL    HW2  467   4.812   1.484   2.871 -1.9540  1.0169  0.3167
   97SOL     OW  468   4.511   1.345   7.713  0.2249 -0.2677  0.3643
   97SOL    HW1  469   4.491   1.432   7.668 -0.0126 -0.6857 -0.3468
   97SOL    HW2  470   4.610   1.327   7.709 -0.0301 -1.4466 -2.1585
   98SOL     OW  471   3.566   3.849   0.670 -0.1544  0.6674 -0.4555
   98SOL    HW1  472   3.532   3.848   0.764 -1.8963 -1.3678 -1.0258
   98SOL    HW2  473   3.537   3.933   0.625  0.4228  1.5204  0.7012
   99SOL     OW  474   8.674   8.533   0.212  0.4900  0.0024 -0.2591
   99SOL    HW1  475   8.753   8.479   0.183 -0.2117 -1.0501 -0.2718
   99SOL    HW2  476   8.614   8.477   0.269 -0.0464  0.9060  0.0855
  100SOL     OW  477   5.943   0.978   4.423 -0.0062 -0.5094 -0.3010
  100SOL    HW1  478   5.881   1.056   4.431 -0.2210 -0.6486 -0.6112
  100SOL    HW2  479   5.928   0.932   4.336  1.3420  0.1537 -0.9252
  101SOL     OW  480   1.502   2.644   7.560  0.1457  0.5004 -0.3527
  101SOL    HW1  481   1.501   2.580   7.636  0.3198  0.1207 -0.6666
  101SOL    HW2  482   1.596   2.658   7.529  0.2945  2.1378  0.7321
  102SOL     OW  483   2.013   0.054   8.492 -0.4042  0.4101 -0.1123
  102SOL    HW1  484   2.070  -0.017   8.535 -0.4626  0.4379  0.0118
  102SOL    HW2  485   1.944   0.084   8.557 -0.6753  0.2479 -0.3254
  103SOL     OW  486   0.531   0.168   2.134 -0.2867  0.2927 -0.3283
  103SOL    HW1  487   0.507   0.106   2.060 -5.2326  1.7596 -0.3536
  103SOL    HW2  488   0.586   0.244   2.098  0.2527 -0.7283 -1.7096
  104SOL     OW  489   5.093   7.072   4.157  1.0058  0.6067 -0.0470
  104SOL    HW1  490   5.074   7.167   4.177 -0.0299  0.6243 -0.9659
  104SOL    HW2  491   5.073   7.015   4.237  0.2853  1.0195  0.0730
  105SOL     OW  492   6.454   5.614   7.134  0.5758  0.0112  0.0471
  105SOL    HW1  493   6.366   5.570   7.152  0.9764 -0.8942 -0.1730
  105SOL    HW2  494   6.486   5.659   7.217  0.8009 -1.2625  0.6654
  106SOL     OW  495   2.760   8.166   4.000 -0.1163  0.0998  0.3576
  106SOL    HW1  496   2.706   8.219   3.935  1.1785 -2.1988 -2.8847
  106SOL    HW2  497   2.852   8.204   4.005  0.6544 -1.3138 -1.5662
  107SOL     OW  498   5.454   8.815   2.804  0.2556  0.8052  0.1520
  107SOL    HW1  499   5.380   8.751   2.783  1.0415  0.3978 -1.5690
  107SOL    HW2  500   5.419   8.909   2.796 -0.5607  0.6346  1.3791
  108SOL     OW  501   8.513   0.069   1.232  0.0612  0.2547  0.5433
  108SOL    HW1  502   8.456   0.139   1.190  0.6091  0.7818  0.6583
  108SOL    HW2  503   8.547   0.006   1.161  1.3270  1.3848  0.0965
  109SOL     OW  504   5.387   1.555   4.597  0.4133 -0.4962  0.3181
  109SOL    HW1  505   5.437   1.473   4.624  0.5025 -0.4605  0.2593
  109SOL    HW2  506   5.292   1.548   4.629  0.6504 -0.2117  1.1302
  110SOL     OW  507   2.116   6.722   1.211 -0.4007  0.3992 -0.2499
  110SOL    HW1  508   2.070   6.724   1.300 -0.2492  0.4351 -0.1728
  110SOL    HW2  509   2.048   6.733   1.138 -0.5579  0.0993 -0.1502
  111SOL     OW  510   0.584   3.093   3.544  0.0448  0.0327 -0.3462
  111SOL    HW1  511   0.545   3.183   3.565  0.4041 -0.5267  3.5028
  111SOL    HW2  512   0.514   3.023   3.555  0.4947 -0.4116 -0.2705
  112SOL     OW  513   1.270   8.716   6.856  0.2747  0.2395 -0.0333
  112SOL    HW1  514   1.254   8.622   6.826  0.3502 -0.0929  0.9322
  112SOL    HW2  515   1.213   8.779   6.802 -0.2611 -0.4184 -0.2426
  113SOL     OW  516   4.401   0.076   6.790 -0.3529 -0.8087  0.4661
  113SOL    HW1  517   4.448   0.147   6.737 -0.7379 -0.3115  0.7823
  113SOL    HW2  518   4.450   0.061   6.876  2.4171 -4.1872 -1.4758
  114SOL     OW  519   7.858   6.609   7.631 -0.2577 -0.2242 -0.2618
  114SOL    HW1  520   7.909   6.542   7.685 -1.0648  0.1119  0.9500
  114SOL    HW2  521   7.851   6.695   7.681 -0.8369  0.1731 -1.0007
  115SOL     OW  522   5.176   2.179   3.916  0.0708  0.5614  0.0803
  115SOL    HW1  523   5.237   2.103   3.892 -0.3903  0.6423 -1.4727
  115SOL    HW2  524   5.192   2.255   3.853 -1.3299  0.7364 -0.0917
  116SOL     OW  525   3.653   2.013   1.638  0.5689  0.2271 -0.5961
  116SOL    HW1  526   3.662   2.099   1.690 -0.5885  0.5940 -0.9736
  116SOL    HW2  527   3.623   1.940   1.700  2.0275 -0.0473 -0.1714
  117SOL     OW  528   2.665   2.494   5.949  0.1630  0.0410  0.2387
  117SOL    HW1  529   2.571   2.527   5.959 -0.5869 -1.5759 -0.7792
  117SOL    HW2  530   2.714   2.503   6.035 -1.6660 -1.1431  1.4713
  118SOL     OW  531   4.161   2.190   1.511 -0.4400 -0.4487  0.1009
  118SOL    HW1  532   4.243   2.135   1.527 -0.1171  0.2178  0.7603
  118SOL    HW2  533   4.098   2.139   1.451  1.0652 -0.4026 -1.5989
  119SOL     OW  534   3.776   6.408   1.707  0.3737  0.2652 -0.4002
  119SOL    HW1  535   3.693   6.390   1.655 -0.7973  2.8836  0.3905
  119SOL    HW2  536   3.753   6.417   1.804  1.3929  1.9812 -0.2887
  120SOL     OW  537   3.342   8.735   3.897 -0.1044  0.2765  0.5679
  120SOL    HW1  538   3.307   8.767   3.985 -1.4084  1.9777 -0.5103
  120SOL    HW2  539   3.278   8.668   3.858 -1.7163  2.4938 -0.8472
  121SOL     OW  540   8.662   6.819   4.878 -0.4298  0.6903 -0.1919
  121SOL    HW1  541   8.599   6.874   4.933 -4.1451 -0.1678 -3.1691
  121SOL    HW2  542   8.727   6.880   4.832 -1.4006  2.0863  0.2110
  122SOL     OW  543   5.500   7.531   8.501  0.5758  0.5051 -0.2935
  122SOL    HW1  544   5.514   7.619   8.454  1.9736  0.3966 -0.1296
  122SOL    HW2  545   5.559   7.462   8.459 -0.3572 -0.3147 -0.2762
  123SOL     OW  546   5.666   6.414   2.806 -0.8373 -0.1494 -0.2505
  123SOL    HW1  547   5.710   6.488   2.756 -0.5989  0.2394  0.5254
  123SOL    HW2  548   5.735   6.348   2.836 -0.8892  0.0049  0.2083
  124SOL     OW  549   3.435   6.830   7.364  0.1845 -0.9110 -0.3561
  124SOL    HW1  550   3.343   6.817   7.400  0.0509  0.2286 -0.2780
  124SOL    HW2  551   3.430   6.852   7.266  0.3165  0.0121 -0.1631
  125SOL     OW  552   3.763   1.558   3.278  0.2085 -0.4248  0.1602
  125SOL    HW1  553   3.824   1.487   3.314 -0.6026 -0.9527  0.5046
  125SOL    HW2  554   3.671   1.546   3.314 -0.6298 -0.9214 -1.9934
  126SOL     OW  555   2.422   3.232   5.768 -0.1315 -0.2053 -0.6012
  126SOL    HW1  556   2.462   3.222   5.859  3.6482  1.2384 -1.9236
  126SOL    HW2  557   2.371   3.318   5.764  0.6404  0.2827 -0.1313
  127SOL     OW  558   4.309   0.470   7.875 -0.5751 -0.0174  0.1793
  127SOL    HW1  559   4.233   0.406   7.884 -0.5283 -0.2406 -0.8977
  127SOL    HW2  560   4.385   0.441   7.933 -1.7603  0.9315  2.3106
  128SOL     OW  561   8.240   5.522   6.264  0.5015 -0.0802  0.2951
  128SOL    HW1  562   8.318   5.584   6.258  0.8672 -0.5269  0.4124
  128SOL    HW2  563   8.268   5.430   6.238 -0.7199  0.3338 -2.8411
  129SOL     OW  564   3.108   1.815   8.797  0.1621  0.4343 -0.6914
  129SOL    HW1  565   3.136   1.730   8.752 -0.8818  0.0089 -0.5570
  129SOL    HW2  566   3.019   1.803   8.840  0.3781  1.3479  0.0624
  130SOL     OW  567   0.014   1.813   5.371 -0.1071  0.3301 -0.0314
  130SOL    HW1  568  -0.058   1.855   5.427 -0.8019 -0.6770 -0.1317
  130SOL    HW2  569  -0.029   1.762   5.296  0.7529  0.3251 -0.5293
  131SOL     OW  570   0.695   1.477   5.275  0.2246 -0.3652 -0.0110
  131SOL    HW1  571   0.679   1.528   5.190 -1.1181  1.0866  1.0539
  131SOL    HW2  572   0.767   1.522   5.328  3.0617 -2.8026 -1.5102
  132SOL     OW  573   3.510   8.691   2.382 -0.4637 -0.4395 -0.0048
  132SOL    HW1  574   3.491   8.772   2.437 -3.7437 -1.1580  0.1252
  132SOL    HW2  575   3.578   8.713   2.313  1.9820  1.1636  2.6945
  133SOL     OW  576   8.106   6.156   7.255 -0.3748  0.2544 -0.2576
  133SOL    HW1  577   8.042   6.205   7.196 -0.6672 -0.5727 -0.6582
  133SOL    HW2  578   8.084   6.174   7.351  0.3151  1.8812 -0.3918
  134SOL     OW  579   2.822   8.526   0.340  0.2447 -0.2436 -0.4991
  134SOL    HW1  580   2.778   8.578   0.414  1.1259 -0.0145 -0.1224
  134SOL    HW2  581   2.863   8.443   0.378 -0.7001 -0.9625 -1.0112
  135SOL     OW  582   8.521   3.196   1.500 -0.3059  0.0442  0.2647
  135SOL    HW1  583   8.444   3.182   1.437 -0.4759 -0.3491  0.5554
  135SOL    HW2  584   8.590   3.253   1.456 -0.1024 -0.7920 -0.5425
  136SOL     OW  585   1.301   8.113   1.752  0.6859 -0.6704 -0.2453
  136SOL    HW1  586   1.277   8.209   1.743 -0.5968 -0.8461  0.8993
  136SOL    HW2  587   1.246   8.071   1.824  0.5679 -2.4818 -1.3077
  137SOL     OW  588   4.182   1.714   3.351 -0.1593 -0.2619  0.2381
  137SOL    HW1  589   4.243   1.650   3.397 -0.4022 -1.6602 -1.2678
  137SOL    HW2  590   4.151   1.784   3.415  0.7831 -1.1716  1.7326
  138SOL     OW  591   0.500   8.441   7.712  0.3584 -0.7809 -0.2515
  138SOL    HW1  592   0.538   8.507   7.777  2.0798 -0.3706 -1.6025
  138SOL    HW2  593   0.533   8.349   7.735  0.4852 -0.7221 -0.1976
  139SOL     OW  594   6.425   7.761   0.512 -0.3658  0.2072  0.0864
  139SOL    HW1  595   6.384   7.769   0.421  1.0880 -0.6472 -0.6880
  139SOL    HW2  596   6.447   7.665   0.529  1.4501  0.6599  0.3908
  140SOL     OW  597   6.701   3.574   8.546  0.6760 -0.3429 -0.1310
  140SOL    HW1  598   6.796   3.545   8.546  0.9350  0.2106 -2.9611
  140SOL    HW2  599   6.696   3.672   8.527 -0.4558 -0.1977  0.7981
  141SOL     OW  600   4.181   4.256   8.474 -0.2915 -0.2564  0.4304
  141SOL    HW1  601   4.187   4.181   8.540  1.3182  0.5929  1.3378
  141SOL    HW2  602   4.208   4.223   8.384 -0.6399 -1.0111  0.5963
  142SOL     OW  603   3.125   8.231   3.388  0.0768  0.3299 -0.0561
  142SOL    HW1  604   3.199   8.264   3.330  0.1803 -0.1902 -0.2198
  142SOL    HW2  605   3.069   8.166   3.338  0.8786 -1.0562  0.7943
  143SOL     OW  606   3.423   7.160   7.431 -0.0463 -0.0646 -0.2719
  143SOL    HW1  607   3.405   7.108   7.347  0.9605 -1.5894  0.4075
  143SOL    HW2  608   3.446   7.096   7.505 -0.7288  1.2558  1.1251
  144SOL     OW  609   8.309   4.090   2.084 -0.2957  0.5359 -0.4003
  144SOL    HW1  610   8.311   4.120   2.179  1.5636  2.7904 -1.0732
  144SOL    HW2  611   8.252   4.152   2.030  0.5686  0.6852 -1.1600
  145SOL     OW  612   7.679   0.880   5.838  0.0204 -0.3517  0.7796
  145SOL    HW1  613   7.676   0.852   5.742 -0.2712  0.7425  0.4588
  145SOL    HW2  614   7.614   0.826   5.891 -0.7641 -0.0593  0.1196
  146SOL     OW  615   7.529   7.054   4.765  0.0714 -0.0227 -0.5047
  146SOL    HW1  616   7.560   7.115   4.692  1.4874 -0.2027 -0.0728
  146SOL    HW2  617   7.593   6.978   4.774  0.1848  0.2455  1.2355
  147SOL     OW  618   7.054   0.177   6.978 -0.2566 -0.2779 -0.0294
  147SOL    HW1  619   6.984   0.133   6.922 -0.6873 -1.8565  1.6392
  147SOL    HW2  620   7.079   0.266   6.938 -2.5769 -0.0559 -1.1205
  148SOL     OW  621   8.722   4.898   5.178  0.0610 -0.1327 -0.7170
  148SOL    HW1  622   8.786   4.929   5.108  2.2998 -1.4366  0.6198
  148SOL    HW2  623   8.749   4.807   5.209 -0.0475  0.8547  2.6766
  149SOL     OW  624   6.971   4.806   6.251  0.0394 -0.6586  0.2252
  149SOL    HW1  625   6.964   4.876   6.180 -2.4554 -0.9909  0.0591
  149SOL    HW2  626   6.977   4.851   6.340  1.6138 -0.2527 -0.0564
  150SOL     OW  627   2.206   8.522   5.505  0.0028 -0.3888  0.1733
  150SOL    HW1  628   2.248   8.469   5.431 -1.0042 -1.0711  0.0788
  150SOL    HW2  629   2.124   8.476   5.537  1.4668 -1.2219  3.1231
  151SOL     OW  630   8.838   8.415   5.097  0.6124  0.4185 -0.3291
  151SOL    HW1  631   8.919   8.466   5.126 -0.4283  1.3275  1.0934
  151SOL    HW2  632   8.757   8.472   5.106 -0.1938 -0.3555 -2.0699
  152SOL     OW  633   3.991   0.810   2.884  0.0100  0.1828  0.2566
  152SOL    HW1  634   3.933   0.791   2.804 -0.3121  0.7762  0.3406
  152SOL    HW2  635   3.978   0.739   2.953 -2.3039  1.4034  1.2021
  153SOL     OW  636   4.880   5.428   5.357  0.4060 -0.7328 -0.2175
  153SOL    HW1  637   4.840   5.429   5.449  0.7598  0.9964 -0.0407
  153SOL    HW2  638   4.974   5.397   5.362  1.2077  1.5492  0.4358
  154SOL     OW  639   7.523   7.640   8.614 -0.2239  0.4464 -0.4056
  154SOL    HW1  640   7.513   7.554   8.564  2.1555 -0.5465  0.6384
  154SOL    HW2  641   7.590   7.698   8.567 -1.2731  1.4519 -0.7060
  155SOL     OW  642   8.717   5.869   3.653  0.0537  0.2822 -0.1036
  155SOL    HW1  643   8.715   5.956   3.604  0.1699  0.4095  0.1150
  155SOL    HW2  644   8.704   5.794   3.588 -0.7200  0.4935 -0.2000
  156SOL     OW  645   1.949   1.152   2.314 -0.3775 -0.3865 -0.2863
  156SOL    HW1  646   1.944   1.064   2.268  1.4219 -0.1878 -0.9613
  156SOL    HW2  647   1.988   1.220   2.252 -0.0181  0.4371  0.8036
  157SOL     OW  648   4.284   3.032   8.504  0.1093 -0.4691 -0.5650
  157SOL    HW1  649   4.253   3.109   8.559  1.2424  0.8650 -1.7041
  157SOL    HW2  650   4.289   3.060   8.408  2.6998 -1.2172 -0.7216
  158SOL     OW  651   5.146   6.222   6.310  0.5183 -0.3613 -0.3409
  158SOL    HW1  652   5.112   6.128   6.313  2.2126 -1.0085 -0.6005
  158SOL    HW2  653   5.244   6.223   6.331  0.3189  1.4801  0.7263
  159SOL     OW  654   4.087   0.642   5.713  0.4763  0.6266  0.2099
  159SOL    HW1  655   4.115   0.593   5.631  0.4103  0.2892  0.3890
  159SOL    HW2  656   4.152   0.625   5.787 -0.6441 -0.8568  0.8837
  160SOL     OW  657   2.410   7.621   5.732  0.4430  0.1314  0.5695
  160SOL    HW1  658   2.507   7.615   5.709  0.3508  0.1764  0.1629
  160SOL    HW2  659   2.380   7.536   5.776  0.7229  0.2135  0.9294
  161SOL     OW  660   3.586   5.532   1.990 -0.4120  0.0763 -0.3618
  161SOL    HW1  661   3.531   5.496   1.915 -1.5879  1.7302 -0.3586
  161SOL    HW2  662   3.657   5.593   1.953 -0.0205 -0.2942 -0.2233
  162SOL     OW  663   8.789   1.758   3.229  0.0791  0.4532  0.1185
  162SOL    HW1  664   8.871   1.806   3.262  1.4351 -2.0772  0.7383
  162SOL    HW2  665   8.737   1.724   3.307 -0.4540  0.3131 -0.2926
  163SOL     OW  666   0.097   2.399   4.359  0.7563  0.2714  0.1703
  163SOL    HW1  667   0.066   2.483   4.401 -2.5970 -0.6003 -0.2891
  163SOL    HW2  668   0.035   2.374   4.284  1.4060 -2.7402  0.5022
  164SOL     OW  669   7.998   0.558   5.755 -0.7376 -0.1555 -0.1271
  164SOL    HW1  670   7.930   0.488   5.730 -1.2181  0.4873 -0.6638
  164SOL    HW2  671   7.952   0.633   5.802 -0.5651  0.7014 -1.2692
  165SOL     OW  672   6.638   7.642   8.834 -0.4285  0.0606 -0.6604
  165SOL    HW1  673   6.656   7.710   8.905 -0.7417  0.9302 -1.3965
  165SOL    HW2  674   6.678   7.673   8.748 -2.7495  0.5692 -1.6208
  166SOL     OW  675   0.181   4.418   4.971 -0.2384 -0.2433 -0.4729
  166SOL    HW1  676   0.139   4.427   4.881 -0.7894 -0.5255 -0.2489
  166SOL    HW2  677   0.246   4.342   4.969 -1.2979 -1.1955 -0.2657
  167SOL     OW  678   2.694   5.506   1.229  0.3051  0.2281  0.5350
  167SOL    HW1  679   2.776   5.451   1.222  0.0384 -0.1796  0.5878
  167SOL    HW2  680   2.689   5.570   1.152  1.1446  0.9059  1.0340
  168SOL     OW  681   7.415   7.909   0.680  0.3188  0.3436  0.0597
  168SOL    HW1  682   7.431   7.862   0.592  0.5230 -0.0536  0.3033
  168SOL    HW2  683   7.432   8.007   0.669  1.1881  0.1809 -0.1432
  169SOL     OW  684   6.727   0.719   3.017  0.0231 -0.0877 -0.2429
  169SOL    HW1  685   6.660   0.718   3.090  0.8362 -0.1522  0.5163
  169SOL    HW2  686   6.734   0.812   2.979 -0.8962 -0.2045 -0.7176
  170SOL     OW  687   8.213   0.536   4.535  0.2700 -0.7760  0.7383
  170SOL    HW1  688   8.306   0.513   4.508 -0.2090 -2.3649  0.3296
  170SOL    HW2  689   8.215   0.610   4.602  1.6776  0.9353 -1.0813
  171SOL     OW  690   8.238   6.989   1.789 -0.6244 -0.0984 -0.6694
  171SOL    HW1  691   8.248   6.998   1.690  0.5566  1.7637 -0.4345
  171SOL    HW2  692   8.239   7.080   1.830 -2.6228 -0.7456  0.9444
  172SOL     OW  693   2.083   1.923   5.198 -0.1467 -0.2650  0.4342
  172SOL    HW1  694   2.155   1.941   5.265  2.0732  0.3016 -1.9566
  172SOL    HW2  695   2.026   2.005   5.188 -0.1530 -0.1697  1.1845
  173SOL     OW  696   0.375   2.045   7.454 -0.3424 -0.8097 -0.1434
  173SOL    HW1  697   0.373   2.128   7.398 -0.9799 -1.6853 -1.4696
  173SOL    HW2  698   0.424   1.973   7.404  1.7054 -0.7957  1.6746
  174SOL     OW  699   3.511   8.669   7.753  0.1808 -0.1544 -0.3362
  174SOL    HW1  700   3.526   8.641   7.658  2.7813  0.8710 -0.3032
  174SOL    HW2  701   3.447   8.746   7.755  2.4180  1.8657 -1.6333
  175SOL     OW  702   6.521   7.348   4.939  0.2489 -0.0939 -0.1919
  175SOL    HW1  703   6.559   7.264   4.901  0.9730  0.7399 -1.3783
  175SOL    HW2  704   6.435   7.370   4.891  0.1464 -0.0689  0.0020
  176SOL     OW  705   0.155   7.428   8.021 -0.4619  0.1410 -0.7419
  176SOL    HW1  706   0.179   7.525   8.026 -3.4547  1.0321 -1.9420
  176SOL    HW2  707   0.120   7.398   8.110 -0.8775  0.5581 -0.7605
  177SOL     OW  708   3.280   4.909   5.019 -0.0740 -0.6617 -0.3458
  177SOL    HW1  709   3.328   4.982   5.068  0.1510 -0.1343 -1.3210
  177SOL    HW2  710   3.183   4.915   5.039 -0.3616  1.2014 -1.9391
  178SOL     OW  711   5.320   2.235   6.900  0.3398  0.1502  0.1150
  178SOL    HW1  712   5.223   2.217   6.883  0.2690 -0.6365  1.2741
  178SOL    HW2  713   5.366   2.257   6.813 -1.0854  1.6560 -0.3091
  179SOL     OW  714   8.387   2.706   3.916 -0.2675  0.6318  0.0815
  179SOL    HW1  715   8.337   2.653   3.984 -2.4054  0.4193 -1.5299
  179SOL    HW2  716   8.406   2.797   3.952 -0.1628  0.0881  1.4279
  180SOL     OW  717   1.911   6.952   3.747 -0.6641 -0.3402 -0.7620
  180SOL    HW1  718   1.986   6.962   3.682  0.8804 -0.2923  0.9552
  180SOL    HW2  719   1.935   6.996   3.834 -2.8291 -0.0381 -0.2532
  181SOL     OW  720   3.640   4.980   5.811  0.2752 -0.4782 -0.2132
  181SOL    HW1  721   3.553   4.934   5.826  0.6336 -1.3120 -0.6684
  181SOL    HW2  722   3.715   4.920   5.840  0.7193  0.1047 -0.1287
  182SOL     OW  723   4.020   0.466   8.352 -0.1376  0.1279  0.0199
  182SOL    HW1  724   4.019   0.540   8.285  0.0591 -1.5428 -1.9046
  182SOL    HW2  725   4.110   0.422   8.352  0.0747  0.4888  1.8836
  183SOL     OW  726   0.192   3.340   0.702 -0.7876 -0.2728 -0.1247
  183SOL    HW1  727   0.275   3.344   0.758 -1.1398 -1.9520  0.5928
  183SOL    HW2  728   0.120   3.296   0.754 -1.0138 -2.3058 -2.0326
  184SOL     OW  729   7.453   5.657   2.999 -0.6601  0.2698  0.2705
  184SOL    HW1  730   7.457   5.565   3.038 -0.0528 -0.0728 -0.5746
  184SOL    HW2  731   7.475   5.725   3.069  2.7462 -0.4547  0.0325
  185SOL     OW  732   8.487   4.564   1.954  0.2290 -0.1922 -0.3084
  185SOL    HW1  733   8.516   4.599   2.043 -0.3473  1.2545 -0.6720
  185SOL    HW2  734   8.393   4.531   1.960  0.5153 -1.0113 -0.1581
  186SOL     OW  735   3.587   4.627   6.568 -0.2533 -0.5223  0.2127
  186SOL    HW1  736   3.685   4.632   6.588 -0.5481  1.0626  1.5021
  186SOL    HW2  737   3.558   4.714   6.527 -0.9574 -1.3300 -1.0497
  187SOL     OW  738   2.529   4.004   3.658 -0.1657  0.3950 -0.0041
  187SOL    HW1  739   2.452   3.941   3.666 -0.6336  0.5724 -2.4014
  187SOL    HW2  740   2.502   4.093   3.693 -0.2723 -0.1173  1.2646
  188SOL     OW  741   7.094   6.518   0.820 -0.1444 -0.2858 -0.4389
  188SOL    HW1  742   7.007   6.511   0.772  0.2434  1.2316 -1.4434
  188SOL    HW2  743   7.131   6.427   0.836 -1.2478 -0.8935 -1.2423
  189SOL     OW  744   6.649   4.672   7.723  0.2935  0.3546 -0.1721
  189SOL    HW1  745   6.585   4.745   7.747 -0.1288 -0.3333  0.8432
  189SOL    HW2  746   6.617   4.585   7.760  2.1198  0.0876  0.9399
  190SOL     OW  747   4.356   2.377   4.417  0.3269 -0.6540  0.1678
  190SOL    HW1  748   4.268   2.376   4.368  1.0415 -1.1507 -1.1663
  190SOL    HW2  749   4.396   2.468   4.411 -0.4188 -0.2100  1.4403
  191SOL     OW  750   6.968   5.998   4.302 -0.1977 -0.5144 -0.4787
  191SOL    HW1  751   6.978   6.030   4.207 -2.6593  1.2463 -0.2589
  191SOL    HW2  752   6.878   5.954   4.312 -1.2689  1.9061  1.5927
  192SOL     OW  753   8.122   2.128   0.722  0.0504 -0.1806  0.0207
  192SOL    HW1  754   8.173   2.046   0.747  1.6197  0.4772 -0.8971
  192SOL    HW2  755   8.048   2.142   0.787  1.1300 -1.0908  1.5064
  193SOL     OW  756   1.257   1.001   7.241  0.0455 -0.2848 -0.6546
  193SOL    HW1  757   1.187   0.931   7.223 -0.8498  0.3808  0.1124
  193SOL    HW2  758   1.236   1.083   7.188  1.0219 -0.5404 -1.4543
  194SOL     OW  759   1.700   7.237   6.051  0.1145  0.3089 -0.0740
  194SOL    HW1  760   1.651   7.311   6.097 -2.4841 -1.8968  0.9461
  194SOL    HW2  761   1.762   7.193   6.116  1.5420  1.3917 -0.6387
  195SOL     OW  762   4.907   6.624   6.736  0.2786 -0.0186  0.5118
  195SOL    HW1  763   4.844   6.696   6.766  0.1888  0.6822 -1.2371
  195SOL    HW2  764   4.861   6.565   6.670  0.9309 -0.5504  0.5221
  196SOL     OW  765   7.972   8.515   5.371  0.0862 -0.1696  0.3332
  196SOL    HW1  766   8.044   8.481   5.431 -2.3227 -2.2096  2.3272
  196SOL    HW2  767   7.983   8.475   5.280  1.9807  0.3767  0.2787
  197SOL     OW  768   0.717   7.087   5.130 -0.2540 -0.1317  0.4782
  197SOL    HW1  769   0.788   7.035   5.082  1.3951  1.6256  0.8716
  197SOL    HW2  770   0.667   7.143   5.065 -0.5491 -0.5298  0.3541
  198SOL     OW  771   0.654   6.311   7.742 -0.2369  0.1435  0.5741
  198SOL    HW1  772   0.650   6.231   7.802 -1.8398 -1.5937 -1.6692
  198SOL    HW2  773   0.562   6.332   7.709  0.5971  0.9693 -1.3367
  199SOL     OW  774   3.045   7.344   7.097 -0.1931  0.6270 -0.1854
  199SOL    HW1  775   3.129   7.345   7.043  1.2376  1.6385  1.9010
  199SOL    HW2  776   2.981   7.411   7.061  1.3148  2.3614  0.1828
  200SOL     OW  777   1.835   1.664   7.643 -0.0041 -0.6246  0.1155
  200SOL    HW1  778   1.797   1.668   7.735  0.7427  2.2259  0.3895
  200SOL    HW2  779   1.887   1.580   7.632 -0.5152 -1.2490  2.1122
  201SOL     OW  780   3.379   7.926   3.015  0.2872 -0.3319  0.3537
  201SOL    HW1  781   3.328   7.974   2.943  0.7528  0.6856  0.6829
  201SOL    HW2  782   3.375   7.828   2.999  0.1993 -0.1327 -0.9352
  202SOL     OW  783   1.335   5.239   6.109  0.0905  0.6041  0.0541
  202SOL    HW1  784   1.359   5.312   6.173  1.3040  1.2176 -1.0494
  202SOL    HW2  785   1.407   5.170   6.108 -0.4740  0.0023  0.1890
  203SOL     OW  786   0.807   4.745   8.859  0.0968 -0.5639 -0.0995
  203SOL    HW1  787   0.726   4.781   8.904  0.1388  0.5749 -0.8942
  203SOL    HW2  788   0.783   4.712   8.768  0.0363 -2.7286  0.6525
  204SOL     OW  789   0.484   6.569   7.238  0.1017 -0.2231 -0.0532
  204SOL    HW1  790   0.524   6.584   7.329  0.4960  1.1348 -0.4288
  204SOL    HW2  791   0.385   6.566   7.246  0.1694 -1.2188  0.5658
  205SOL     OW  792   6.346   8.752   1.716 -0.5855  0.1174  0.2415
  205SOL    HW1  793   6.308   8.674   1.765 -2.1133  0.9993  0.5227
  205SOL    HW2  794   6.376   8.722   1.625 -0.1799 -0.9955  0.7285
  206SOL     OW  795   6.136   6.416   2.791  0.2882  0.1792  0.1920
  206SOL    HW1  796   6.208   6.412   2.860  1.0341  0.3605 -0.5637
  206SOL    HW2  797   6.099   6.509   2.785  0.5820  0.2826 -0.0146
  207SOL     OW  798   7.775   8.467   6.790  0.2365 -0.0631 -1.1697
  207SOL    HW1  799   7.820   8.378   6.794  1.7628  0.6580 -1.3927
  207SOL    HW2  800   7.785   8.513   6.878  0.4844  0.3630 -1.4183
  208SOL     OW  801   2.723   5.335   7.320  0.0470  0.0405 -0.1042
  208SOL    HW1  802   2.819   5.307   7.314  0.0078 -0.1229  0.0650
  208SOL    HW2  803   2.678   5.287   7.394  0.3078  1.4763  1.0290
  209SOL     OW  804   2.433   1.712   7.949  0.0264  0.2102  0.4459
  209SOL    HW1  805   2.377   1.632   7.970 -1.2241  0.5851 -1.2682
  209SOL    HW2  806   2.527   1.683   7.928 -0.3328 -0.7766  0.1590
  210SOL     OW  807   1.821   5.845   1.188 -0.1503 -0.0564 -0.0389
  210SOL    HW1  808   1.762   5.919   1.154 -3.0648 -1.0466  2.4006
  210SOL    HW2  809   1.873   5.878   1.268 -2.5778 -0.8443  2.0027
  211SOL     OW  810   4.982   3.413   7.063 -0.4434  0.0008  0.0864
  211SOL    HW1  811   5.050   3.484   7.079  0.5956 -0.8415 -0.4685
  211SOL    HW2  812   4.952   3.417   6.967 -1.7456  0.8413  0.5102
  212SOL     OW  813   2.645   0.499   5.422  0.1070  0.1893 -0.1741
  212SOL    HW1  814   2.563   0.508   5.479  0.2602  1.2151 -0.0983
  212SOL    HW2  815   2.725   0.528   5.474  0.7256 -1.9827  0.1823
  213SOL     OW  816   5.364   1.075   7.216  0.1321 -0.0591  0.0463
  213SOL    HW1  817   5.408   1.157   7.180  0.2093 -0.2170 -0.2224
  213SOL    HW2  818   5.321   1.025   7.141  0.0940 -0.2688  0.2085
  214SOL     OW  819   0.365   1.647   7.555  0.1496  0.3350 -0.3735
  214SOL    HW1  820   0.409   1.674   7.469  1.5938  2.4475  0.9216
  214SOL    HW2  821   0.419   1.575   7.598  0.5070  0.6110 -0.3527
  215SOL     OW  822   0.256   7.697   7.727 -0.2468 -0.7438  0.6454
  215SOL    HW1  823   0.188   7.746   7.782 -1.0846 -0.3074 -0.7283
  215SOL    HW2  824   0.324   7.762   7.693 -1.9677 -0.2107 -2.0903
  216SOL     OW  825   4.198   3.427   3.623  0.2197 -0.1376  0.3958
  216SOL    HW1  826   4.193   3.408   3.721  2.2105  0.8411  0.7333
  216SOL    HW2  827   4.161   3.349   3.572 -1.5712 -0.3353  1.9091
  217SOL     OW  828   5.549   4.994   4.214 -0.4370 -0.1595  0.1224
  217SOL    HW1  829   5.581   4.965   4.124 -1.4438  0.1580 -0.3501
  217SOL    HW2  830   5.598   4.943   4.285  0.3062 -0.4664 -0.6014
  218SOL     OW  831   3.482   3.130   2.820 -0.3290  0.0365 -0.1074
  218SOL    HW1  832   3.518   3.221   2.843  0.3205  0.4817 -2.5846
  218SOL    HW2  833   3.555   3.074   2.782 -1.0350 -1.0760  0.1345
  219SOL     OW  834   0.922   1.761   3.150 -0.1078 -0.5296 -0.1821
  219SOL    HW1  835   0.882   1.824   3.084 -0.5585  1.2554  1.6932
  219SOL    HW2  836   0.895   1.788   3.243  2.5285 -1.3848  0.9468
  220SOL     OW  837   6.649   1.420   6.220  0.3220 -0.1460 -0.0454
  220SOL    HW1  838   6.566   1.408   6.274 -0.3373 -0.9985 -1.2129
  220SOL    HW2  839   6.714   1.476   6.271 -0.9401  0.4876  0.9173
  221SOL     OW  840   6.052   7.273   5.417 -0.1651  1.1540 -0.1872
  221SOL    HW1  841   6.090   7.343   5.478 -2.2543  1.0275  1.3954
  221SOL    HW2  842   5.992   7.317   5.350 -0.3147  1.0307 -0.1357
  222SOL     OW  843   7.458   2.004   4.480 -0.1837  0.3323  0.1373
  222SOL    HW1  844   7.504   1.929   4.526  1.3322  0.3379 -1.2817
  222SOL    HW2  845   7.411   1.968   4.399  0.5278  0.8832 -0.5328
  223SOL     OW  846   1.466   6.246   6.808 -0.0408  0.2688  0.3322
  223SOL    HW1  847   1.416   6.170   6.767 -0.2651  2.2705 -3.5461
  223SOL    HW2  848   1.562   6.220   6.821  0.1551 -0.4194 -2.0073
  224SOL     OW  849   2.452   6.837   8.702  0.0127 -0.2326 -0.1465
  224SOL    HW1  850   2.502   6.895   8.639 -0.2000 -0.6046 -0.6639
  224SOL    HW2  851   2.359   6.824   8.669  0.0439 -0.8292 -0.0143
  225SOL     OW  852   3.838   5.752   2.919 -0.0129  0.1709  0.1502
  225SOL    HW1  853   3.819   5.734   2.823 -0.2285  1.3978 -0.0515
  225SOL    HW2  854   3.772   5.703   2.976 -2.5433  2.6183 -0.4740
  226SOL     OW  855   1.350   6.718   5.557  0.0969  0.1115  0.2277
  226SOL    HW1  856   1.434   6.675   5.589 -0.4075 -0.8668  0.2783
  226SOL    HW2  857   1.283   6.721   5.631 -0.6802 -1.1502 -0.3745
  227SOL     OW  858   5.678   1.604   5.929  0.0056 -0.2545 -0.4060
  227SOL    HW1  859   5.617   1.657   5.869 -1.1754 -0.1531  0.8236
  227SOL    HW2  860   5.754   1.661   5.958 -0.4545  0.3068 -0.2863
  228SOL     OW  861   3.633   2.967   3.839 -0.0338 -0.4442  0.6052
  228SOL    HW1  862   3.703   2.906   3.800  0.2701 -1.8592  3.1401
  228SOL    HW2  863   3.678   3.042   3.888 -0.1768 -1.4132  2.3271
  229SOL     OW  864   7.940   3.563   3.007  0.8876 -0.2010  0.4200
  229SOL    HW1  865   7.995   3.503   3.065  1.8671 -1.9077 -2.0807
  229SOL    HW2  866   7.999   3.624   2.955  0.2909 -0.6583 -0.8359
  230SOL     OW  867   3.407   7.444   6.704 -0.0697  0.0791 -0.0513
  230SOL    HW1  868   3.411   7.409   6.610 -0.8845 -0.5366  0.1366
  230SOL    HW2  869   3.469   7.390   6.761 -0.5262 -0.3854  0.0170
  231SOL     OW  870   5.007   2.863   6.966  0.3717 -1.1220 -0.1717
  231SOL    HW1  871   4.918   2.816   6.967  0.3638 -1.1193  1.2718
  231SOL    HW2  872   4.995   2.955   6.930 -0.2527 -1.0773  0.1273
  232SOL     OW  873   5.059   7.973   3.319  0.1134  0.2191  0.3439
  232SOL    HW1  874   4.961   7.981   3.304  0.1720 -1.2325 -1.1833
  232SOL    HW2  875   5.082   7.876   3.334  1.2523  0.6028  1.2278
  233SOL     OW  876   7.546   7.902   1.611  0.1503  0.3635  0.0845
  233SOL    HW1  877   7.577   7.810   1.631  1.5453  0.0201 -3.0182
  233SOL    HW2  878   7.466   7.924   1.668 -0.6816 -2.9892  0.4323
  234SOL     OW  879   6.335   2.384   0.979 -0.5270  0.1495 -0.1403
  234SOL    HW1  880   6.330   2.483   0.993 -1.1002 -0.0301  1.0591
  234SOL    HW2  881   6.420   2.349   1.019 -0.1200  0.2100 -0.9434
  235SOL     OW  882   5.912   3.490   2.286 -0.6924  0.2673 -0.0865
  235SOL    HW1  883   5.853   3.428   2.234  0.0135  0.5216 -1.2408
  235SOL    HW2  884   5.909   3.581   2.245 -0.8452  0.7156  0.9093
  236SOL     OW  885   2.142   8.505   0.145 -0.4123 -0.1281 -0.2165
  236SOL    HW1  886   2.085   8.441   0.197 -0.8475  0.0200 -0.5002
  236SOL    HW2  887   2.086   8.583   0.116 -0.8856 -1.4158 -3.1270
  237SOL     OW  888   2.925   8.358   2.307 -0.1918 -0.5607 -0.1545
  237SOL    HW1  889   2.828   8.334   2.310 -0.2171 -0.3921  1.5852
  237SOL    HW2  890   2.977   8.282   2.267 -1.0282 -0.6123 -1.1908
  238SOL     OW  891   8.206   4.072   5.408 -0.2430 -0.5274 -0.6113
  238SOL    HW1  892   8.158   4.150   5.370  0.0621  0.4574  0.9290
  238SOL    HW2  893   8.274   4.038   5.342  0.9096  1.6745 -0.6285
  239SOL     OW  894   1.772   6.234   3.120  0.0766  0.2191 -0.4817
  239SOL    HW1  895   1.693   6.245   3.059 -0.7449 -1.5525  0.2170
  239SOL    HW2  896   1.837   6.171   3.078  1.6447  2.3954 -1.4949
  240SOL     OW  897   2.704   6.785   0.419 -0.5733  0.3068  0.0307
  240SOL    HW1  898   2.610   6.791   0.386 -0.6523 -0.3665  0.1295
  240SOL    HW2  899   2.725   6.691   0.444 -0.8542  0.8871  2.8374
  241SOL     OW  900   2.530   0.883   8.111  0.0647 -0.2933 -0.3432
  241SOL    HW1  901   2.509   0.790   8.082  0.4167 -0.3187 -0.5224
  241SOL    HW2  902   2.630   0.896   8.113  0.0217  0.0378 -0.1927
  242SOL     OW  903   0.921   1.388   8.031 -0.4918  0.1014  0.6249
  242SOL    HW1  904   0.881   1.424   8.115 -2.8155  0.2627 -0.4774
  242SOL    HW2  905   0.911   1.289   8.028  0.7584 -0.0530  1.0930
  243SOL     OW  906   1.140   5.167   5.547 -0.1121  0.2793  0.7111
  243SOL    HW1  907   1.173   5.077   5.520  0.3115  1.4138 -3.1295
  243SOL    HW2  908   1.176   5.190   5.637  2.3235 -2.1066  0.4837
  244SOL     OW  909   1.837   3.242   0.886 -0.1288 -0.2505 -0.3042
  244SOL    HW1  910   1.755   3.212   0.837 -0.3489 -0.0417 -0.0618
  244SOL    HW2  911   1.883   3.313   0.833 -1.1091  0.9571  0.4259
  245SOL     OW  912   8.683   3.456   6.315  0.1128  0.2816  0.0599
  245SOL    HW1  913   8.677   3.536   6.255 -0.6807  1.8023  2.0034
  245SOL    HW2  914   8.729   3.482   6.400 -0.5372 -1.2188  0.9154
  246SOL     OW  915   0.124   7.269   4.371  0.0513  0.0070 -0.1718
  246SOL    HW1  916   0.171   7.187   4.337 -1.6031 -0.6868 -0.8967
  246SOL    HW2  917   0.166   7.350   4.331  0.5611 -0.6009 -0.9060
  247SOL     OW  918   6.432   4.818   4.507 -0.0807 -0.1147  0.4928
  247SOL    HW1  919   6.459   4.894   4.448  0.3233 -2.0658 -1.9747
  247SOL    HW2  920   6.504   4.799   4.573  1.9171 -1.1763 -1.8522
  248SOL     OW  921   8.689   4.670   3.370  0.1751 -0.1419 -0.0851
  248SOL    HW1  922   8.775   4.699   3.328 -0.3418  0.7853 -0.5264
  248SOL    HW2  923   8.612   4.711   3.320 -0.5563 -1.5561 -0.1680
  249SOL     OW  924   5.496   6.009   7.094 -0.1510 -0.2253 -0.3047
  249SOL    HW1  925   5.448   5.924   7.117 -0.1372 -0.0954  0.2209
  249SOL    HW2  926   5.595   5.991   7.092 -0.1093 -0.0955  0.3838
  250SOL     OW  927   0.209   4.786   7.437  0.8771 -0.3512  0.4153
  250SOL    HW1  928   0.237   4.871   7.391 -0.7877 -0.0038 -0.0522
  250SOL    HW2  929   0.258   4.776   7.523  1.7184  0.6548  0.0685
  251SOL     OW  930   7.310   5.787   7.456 -0.1117 -0.7125 -0.0737
  251SOL    HW1  931   7.300   5.868   7.513  0.3176 -0.6277 -0.1145
  251SOL    HW2  932   7.220   5.755   7.426 -0.2367  0.2479 -0.7589
  252SOL     OW  933   0.282   4.506   0.303  0.5876  0.3630  0.4358
  252SOL    HW1  934   0.230   4.509   0.218  0.3732 -0.8701  0.5119
  252SOL    HW2  935   0.291   4.599   0.339  1.9800  1.1247 -1.6721
  253SOL     OW  936   2.368   6.466   4.447  0.1264  0.0856 -0.1656
  253SOL    HW1  937   2.322   6.389   4.491  0.3488 -0.1728 -0.3761
  253SOL    HW2  938   2.329   6.482   4.356 -0.7994  1.0603  0.3831
  254SOL     OW  939   1.313   2.302   6.527 -0.7066 -0.6774  0.7165
  254SOL    HW1  940   1.255   2.380   6.547 -0.5028 -0.6384  1.1880
  254SOL    HW2  941   1.281   2.256   6.445 -0.7764 -0.0520  0.3908
  255SOL     OW  942   7.475   5.602   1.091  0.5788 -0.9835  0.2251
  255SOL    HW1  943   7.513   5.512   1.111  4.2598  0.4742  0.6761
  255SOL    HW2  944   7.534   5.672   1.132 -0.8587  1.7068 -2.0043
  256SOL     OW  945   1.291   5.192   4.143 -0.0816 -0.6464  0.2184
  256SOL    HW1  946   1.228   5.229   4.211  0.2375  1.5185 -0.5782
  256SOL    HW2  947   1.383   5.186   4.182 -0.0447 -0.1306  0.2156
  257SOL     OW  948   1.248   7.642   5.001  0.4392  0.4429  0.2796
  257SOL    HW1  949   1.288   7.660   5.091 -0.8114  2.4478  0.4866
  257SOL    HW2  950   1.148   7.637   5.010  0.4196 -1.8784 -0.6320
  258SOL     OW  951   6.380   7.235   7.566 -0.3542  0.7171  0.4401
  258SOL    HW1  952   6.454   7.236   7.499 -1.0535 -0.0919 -0.3612
  258SOL    HW2  953   6.419   7.241   7.658  0.7076  0.2929  0.0380
  259SOL     OW  954   3.994   5.606   0.018  0.1301  0.0221  0.0531
  259SOL    HW1  955   4.038   5.575  -0.066 -0.2818  0.6742 -0.4095
  259SOL    HW2  956   3.928   5.537   0.049  3.0644 -2.1152  2.0600
  260SOL     OW  957   7.702   1.995   6.581  0.0268 -0.1642 -0.1007
  260SOL    HW1  958   7.726   1.945   6.498 -1.7559  1.4598 -1.6698
  260SOL    HW2  959   7.785   2.037   6.619  0.5675  1.1471 -2.5114
  261SOL     OW  960   1.058   8.716   1.340 -0.3160 -0.1082  0.4695
  261SOL    HW1  961   1.074   8.733   1.438 -2.1923 -1.6587  1.1154
  261SOL    HW2  962   1.019   8.799   1.299 -0.3910  0.2721  1.2753
  262SOL     OW  963   2.271   1.848   2.148 -0.0875  0.0591  0.2732
  262SOL    HW1  964   2.265   1.755   2.112  2.1419  0.3725 -1.0977
  262SOL    HW2  965   2.219   1.910   2.088  1.5182  0.2053 -1.0145
  263SOL     OW  966   6.671   1.376   4.222 -0.0786 -0.8280 -0.7156
  263SOL    HW1  967   6.749   1.335   4.174  0.7058  1.1671 -1.2121
  263SOL    HW2  968   6.672   1.475   4.210 -2.7340 -0.7283 -0.7851
  264SOL     OW  969   2.711   7.146   0.937  0.2510  0.7009  0.7739
  264SOL    HW1  970   2.795   7.197   0.956 -0.0834  1.3675  0.4828
  264SOL    HW2  971   2.632   7.199   0.967 -0.0150 -0.6491  2.6315
  265SOL     OW  972   4.841   3.928   8.640  0.7841  0.3137  0.0060
  265SOL    HW1  973   4.826   3.833   8.669 -1.6395  0.7459  0.4492
  265SOL    HW2  974   4.841   3.988   8.720 -3.0620  1.1919 -0.4503
  266SOL     OW  975   1.834   0.297   3.304 -0.7079 -0.3212 -0.2811
  266SOL    HW1  976   1.853   0.201   3.281  2.5070  0.1642 -0.0983
  266SOL    HW2  977   1.897   0.356   3.254 -0.5485  1.4850  1.8979
  267SOL     OW  978   6.881   4.639   5.637  0.0318  0.1792 -0.3718
  267SOL    HW1  979   6.956   4.572   5.633  0.5209  0.6019  0.9819
  267SOL    HW2  980   6.799   4.595   5.672 -0.2100 -0.1634 -1.3560
  268SOL     OW  981   8.555   2.864   0.653  0.2055  0.3712 -0.1422
  268SOL    HW1  982   8.551   2.775   0.608 -1.6062  0.1986  0.3184
  268SOL    HW2  983   8.570   2.935   0.585  1.8962 -0.2557 -0.4947
  269SOL     OW  984   3.577   4.317   1.949  0.6074 -1.0838 -0.1639
  269SOL    HW1  985   3.640   4.286   2.021  0.7459  0.4543  0.4230
  269SOL    HW2  986   3.554   4.240   1.890  1.3942 -2.1429  0.8467
  270SOL     OW  987   0.168   8.449   4.764 -0.1268 -0.1835 -0.1472
  270SOL    HW1  988   0.099   8.510   4.801  1.0386  0.4227  1.1045
  270SOL    HW2  989   0.125   8.364   4.734 -1.8019  1.2583 -2.0827
  271SOL     OW  990   8.315   4.092   2.376 -0.1622  0.2382  0.2536
  271SOL    HW1  991   8.408   4.081   2.410 -0.1665  1.9246  0.8790
  271SOL    HW2  992   8.251   4.051   2.441  0.1189 -1.4084 -0.4330
  272SOL     OW  993   6.930   6.996   6.768  0.2306 -0.1074  0.1158
  272SOL    HW1  994   6.988   6.925   6.728 -2.0231 -0.8697 -2.0925
  272SOL    HW2  995   6.967   7.086   6.746  0.8439 -0.5817 -0.8708
  273SOL     OW  996   5.219   4.813   3.664  0.2169  0.2331  0.0891
  273SOL    HW1  997   5.315   4.833   3.645 -0.0100  0.6531 -0.6752
  273SOL    HW2  998   5.191   4.731   3.615  0.6187 -0.8641  1.6467
  274SOL     OW  999   7.832   7.386   1.979 -0.1914  0.4782 -0.0458
  274SOL    HW1 1000   7.793   7.323   2.046  0.2914  1.0145  0.7541
  274SOL    HW2 1001   7.903   7.339   1.926  0.0859  0.3171  0.4662
  275SOL     OW 1002   0.796   5.935   1.791  0.3432  0.6666  0.1494
  275SOL    HW1 1003   0.892   5.914   1.805  0.2150  0.1452  0.2911
  275SOL    HW2 1004   0.779   6.032   1.810  0.6230  0.5084  1.2552
  276SOL     OW 1005   2.795   1.127   5.878 -0.4694  0.5397 -0.6508
  276SOL    HW1 1006   2.855   1.071   5.820 -0.4144 -2.6979  2.1918
  276SOL    HW2 1007   2.821   1.223   5.870  1.9705 -0.2015 -3.0525
  277SOL     OW 1008   4.657   3.839   5.366  0.0206  0.3513  0.2445
  277SOL    HW1 1009   4.745   3.887   5.372 -0.5878  1.4996  0.3303
  277SOL    HW2 1010   4.655   3.781   5.285  0.4095  1.2763 -0.4438
  278SOL     OW 1011   3.326   5.145   7.627 -0.2519 -0.1240 -0.3883
  278SOL    HW1 1012   3.417   5.185   7.637  0.7008 -1.5654 -2.5263
  278SOL    HW2 1013   3.261   5.196   7.684  1.4626  2.2526 -0.3945
  279SOL     OW 1014   4.466   7.691   2.799  0.1144  0.0724 -0.2784
  279SOL    HW1 1015   4.540   7.663   2.860 -0.5709 -0.1164  0.4847
  279SOL    HW2 1016   4.465   7.631   2.718  0.3181 -0.4080  0.0692
  280SOL     OW 1017   5.528   0.314   7.647 -0.4896  0.3271 -0.3966
  280SOL    HW1 1018   5.513   0.313   7.746 -0.7741  1.0134 -0.4245
  280SOL    HW2 1019   5.615   0.358   7.627  0.5694 -1.6253 -0.3606
  281SOL     OW 1020   6.309   5.402   1.965  0.6096 -0.0473 -0.7763
  281SOL    HW1 1021   6.391   5.434   1.919  1.0693 -1.4380 -0.9931
  281SOL    HW2 1022   6.333   5.367   2.056  0.5267 -1.7342 -1.3688
  282SOL     OW 1023   2.416   4.329   2.496 -0.0122  0.3431  0.0930
  282SOL    HW1 1024   2.344   4.366   2.437 -2.9768 -0.6925  2.7862
  282SOL    HW2 1025   2.459   4.251   2.451 -0.1678  1.2804 -1.7887
  283SOL     OW 1026   7.075   8.143   3.788 -0.1066 -0.4655 -0.8013
  283SOL    HW1 1027   7.061   8.045   3.773 -2.0309 -0.4016  0.2163
  283SOL    HW2 1028   7.002   8.178   3.848  0.5595  1.5862 -1.1139
  284SOL     OW 1029   3.654   5.265   7.242  0.1486  0.2812 -0.1797
  284SOL    HW1 1030   3.657   5.359   7.276  0.6920 -0.6686  2.6529
  284SOL    HW2 1031   3.745   5.225   7.246 -0.1339 -0.4721 -1.0233
  285SOL     OW 1032   2.359   4.348   1.771 -0.1339  0.1404 -0.0088
  285SOL    HW1 1033   2.442   4.370   1.824  0.2239 -0.6058 -0.2381
  285SOL    HW2 1034   2.278   4.373   1.824  0.1945 -1.5043  1.3624
  286SOL     OW 1035   8.047   5.455   5.278 -0.3283 -0.0446  0.7502
  286SOL    HW1 1036   8.076   5.398   5.201 -0.2337  0.2296  0.5813
  286SOL    HW2 1037   8.100   5.430   5.360 -0.8468 -0.7464  0.8778
  287SOL     OW 1038   3.662   8.528   4.696  0.0854  0.0128  0.7766
  287SOL    HW1 1039   3.591   8.475   4.650  1.9771 -1.7785 -0.2503
  287SOL    HW2 1040   3.702   8.474   4.770 -1.0171  1.8224  2.7993
  288SOL     OW 1041   8.838   7.197   4.967 -0.0004  0.5075 -0.5920
  288SOL    HW1 1042   8.751   7.169   4.926 -1.1085  0.5050  1.6231
  288SOL    HW2 1043   8.842   7.297   4.974 -0.0134  0.4918 -0.3316
  289SOL     OW 1044   6.601   7.884   2.471 -0.1913 -0.0235 -0.4525
  289SOL    HW1 1045   6.578   7.857   2.564 -1.7197 -1.1548 -1.1160
  289SOL    HW2 1046   6.667   7.960   2.474  0.8827 -0.9441  1.5094
  290SOL     OW 1047   4.667   1.794   7.901 -0.2722  0.2060  0.0582
  290SOL    HW1 1048   4.599   1.819   7.832  0.5712  1.0748 -0.4802
  290SOL    HW2 1049   4.668   1.863   7.973  0.1724  0.2942 -0.0315
  291SOL     OW 1050   7.668   1.454   7.156  0.3159 -0.0012 -0.6996
  291SOL    HW1 1051   7.741   1.520   7.136  0.0924  0.4023 -0.1946
  291SOL    HW2 1052   7.617   1.435   7.073  0.9007 -0.1738 -1.0293
  292SOL     OW 1053   8.673   7.627   2.477  0.1814 -0.1604  0.3742
  292SOL    HW1 1054   8.759   7.577   2.480 -0.5505 -1.4839 -0.1094
  292SOL    HW2 1055   8.682   7.711   2.530  1.9152 -0.0281 -0.0542
  293SOL     OW 1056   3.920   3.500   2.199  0.3487 -0.0600 -0.9412
  293SOL    HW1 1057   3.884   3.574   2.142  0.4503 -0.1580 -1.1361
  293SOL    HW2 1058   3.844   3.454   2.245  0.4154  1.1666  0.4366
  294SOL     OW 1059   0.988   0.009   2.477 -0.2404 -0.0814 -0.1694
  294SOL    HW1 1060   0.907   0.011   2.537 -0.3574  1.7718 -0.3404
  294SOL    HW2 1061   0.959  -0.005   2.383 -0.2820 -0.2392 -0.1347
  295SOL     OW 1062   2.624   2.908   1.093 -0.1267  0.2203  0.4587
  295SOL    HW1 1063   2.527   2.887   1.083  0.0506 -0.6552  0.5279
  295SOL    HW2 1064   2.664   2.848   1.162  0.8426 -0.6485 -0.8070
  296SOL     OW 1065   4.171   0.249   6.847 -0.3293  0.5668 -0.2568
  296SOL    HW1 1066   4.212   0.163   6.817  0.8781  1.7234 -2.1622
  296SOL    HW2 1067   4.172   0.254   6.947  2.1409 -0.4619 -0.1754
  297SOL     OW 1068   4.908   7.925   3.931  0.0018 -0.0491  0.0298
  297SOL    HW1 1069   4.992   7.965   3.895 -0.9638  3.0570  0.8747
  297SOL    HW2 1070   4.887   7.966   4.020 -1.8384 -1.5392  0.3460
  298SOL     OW 1071   5.157   8.750   4.437 -0.6689 -0.8993  0.1290
  298SOL    HW1 1072   5.060   8.773   4.422 -0.4315  0.2494  0.2802
  298SOL    HW2 1073   5.214   8.800   4.372 -0.0797 -0.5131  0.9297
  299SOL     OW 1074   1.580   4.471   7.903 -0.3030  0.4068 -0.0290
  299SOL    HW1 1075   1.508   4.493   7.837 -0.9861 -0.8743  0.2679
  299SOL    HW2 1076   1.602   4.553   7.956 -3.2266  0.3657  1.4791
  300SOL     OW 1077   4.547   1.315   6.708 -0.3128 -0.0723 -0.9401
  300SOL    HW1 1078   4.479   1.324   6.780  0.7842  0.6377  0.0572
  300SOL    HW2 1079   4.563   1.219   6.688 -1.5237 -0.2456 -1.1369
  301SOL     OW 1080   2.004   1.806   8.628 -0.3654  0.9247  0.3140
  301SOL    HW1 1081   1.919   1.776   8.670  0.2333 -0.5063  0.5864
  301SOL    HW2 1082   2.024   1.900   8.654 -2.6031  1.8176 -0.9645
  302SOL     OW 1083   0.980   0.794   4.535 -0.5427 -0.5072  0.3205
  302SOL    HW1 1084   1.014   0.829   4.448 -0.0055  1.6623  1.3336
  302SOL    HW2 1085   1.032   0.712   4.561  1.7260  0.8335  0.2465
  303SOL     OW 1086   6.871   1.409   3.079  0.1792  0.5445  0.4139
  303SOL    HW1 1087   6.847   1.360   3.163 -1.4889 -1.7822 -1.3231
  303SOL    HW2 1088   6.788   1.440   3.033  1.0831  2.1987 -0.2205
  304SOL     OW 1089   5.447   7.928   8.356  0.4236  0.3782 -0.2333
  304SOL    HW1 1090   5.456   7.934   8.257  2.4975 -0.7203 -0.1688
  304SOL    HW2 1091   5.522   7.873   8.393 -0.3357  0.7092  1.9509
  305SOL     OW 1092   7.278   4.326   0.405  0.7670 -0.0864 -0.0889
  305SOL    HW1 1093   7.274   4.227   0.419  0.8196 -0.1763 -0.6622
  305SOL    HW2 1094   7.361   4.363   0.446  0.3478 -0.1556  0.8337
  306SOL     OW 1095   8.122   2.179   8.479  0.4585  0.2486 -0.4254
  306SOL    HW1 1096   8.045   2.241   8.490 -0.1997 -0.9618  3.0688
  306SOL    HW2 1097   8.089   2.087   8.460  1.1102  0.0095 -0.4461
  307SOL     OW 1098   5.532   2.452   0.836 -0.1437 -0.0416 -0.1664
  307SOL    HW1 1099   5.513   2.485   0.928  1.4584  0.3720  0.0522
  307SOL    HW2 1100   5.502   2.519   0.768  0.7195  0.6843  0.1615
  308SOL     OW 1101   5.649   6.703   0.071 -0.6768 -0.0802 -0.0057
  308SOL    HW1 1102   5.701   6.788   0.076 -0.5439 -0.1550 -0.1188
  308SOL    HW2 1103   5.588   6.705  -0.009 -1.2433  0.2305  0.4247
  309SOL     OW 1104   4.158   7.603   6.993 -0.2246 -0.0431 -0.3232
  309SOL    HW1 1105   4.240   7.634   6.946 -0.6262  1.1147 -0.3128
  309SOL    HW2 1106   4.162   7.505   7.008  0.9162 -0.0759 -0.7815
  310SOL     OW 1107   7.847   2.795   6.590 -0.2058 -0.4317 -0.0765
  310SOL    HW1 1108   7.817   2.861   6.520 -0.7812  0.8281  1.2983
  310SOL    HW2 1109   7.777   2.724   6.600  0.3392 -1.2182 -1.4465
  311SOL     OW 1110   7.255   7.212   3.712 -0.0796 -0.6966 -0.3286
  311SOL    HW1 1111   7.292   7.124   3.741 -0.2043 -0.4874  0.4915
  311SOL    HW2 1112   7.325   7.264   3.662  0.4528 -0.6713  0.4320
  312SOL     OW 1113   2.649   1.938   7.166  0.1459  0.6630 -0.1341
  312SOL    HW1 1114   2.614   2.017   7.116 -0.4223  0.3134 -0.3017
  312SOL    HW2 1115   2.746   1.926   7.147 -0.3260 -0.2584 -2.2614
  313SOL     OW 1116   8.404   5.759   7.169 -0.0194 -0.0738 -0.3023
  313SOL    HW1 1117   8.390   5.854   7.140  0.8739  0.6972  1.6151
  313SOL    HW2 1118   8.330   5.733   7.231 -0.1058 -0.5453 -0.6041
  314SOL     OW 1119   8.108   6.001   0.386  0.1324 -0.2438 -0.2370
  314SOL    HW1 1120   8.160   5.983   0.469  0.6295 -1.2772 -0.7474
  314SOL    HW2 1121   8.161   5.971   0.307 -1.3126 -1.5579 -0.7655
  315SOL     OW 1122   2.611   0.106   7.230 -0.3820 -0.4566 -0.3423
  315SOL    HW1 1123   2.539   0.056   7.182 -0.7522 -1.1404  0.8935
  315SOL    HW2 1124   2.697   0.096   7.179 -1.0380 -0.0295 -1.5708
  316SOL     OW 1125   3.438   4.804   7.681 -0.3509 -0.4409 -0.6296
  316SOL    HW1 1126   3.363   4.856   7.639 -0.0470  0.9016  0.4054
  316SOL    HW2 1127   3.508   4.868   7.712  0.7281 -1.6084 -0.6008
  317SOL     OW 1128   1.328   8.098   7.099 -0.0088 -0.6240 -0.3345
  317SOL    HW1 1129   1.373   8.049   7.174 -0.1029  0.6228  0.5737
  317SOL    HW2 1130   1.229   8.098   7.113  0.0321  0.3734  0.0465
  318SOL     OW 1131   6.980   0.846   8.126  0.0593 -0.3388  0.2011
  318SOL    HW1 1132   7.055   0.852   8.060 -0.3578 -0.2801 -0.2759
  318SOL    HW2 1133   6.946   0.752   8.129 -1.5981  0.1358 -1.5849
  319SOL     OW 1134   6.927   3.883   6.521  0.0212  0.4746 -0.4487
  319SOL    HW1 1135   6.946   3.902   6.425  1.0346 -1.3303 -0.6511
  319SOL    HW2 1136   6.854   3.815   6.529  1.0271 -0.5949 -0.0317
  320SOL     OW 1137   5.512   2.832   2.770  0.4599 -0.6736  0.1783
  320SOL    HW1 1138   5.420   2.842   2.732  0.6141  0.3172  0.0501
  320SOL    HW2 1139   5.535   2.912   2.825  1.2510 -0.9078  0.2097
  321SOL     OW 1140   1.125   6.505   1.008 -0.1896  0.0263  0.0064
  321SOL    HW1 1141   1.207   6.475   1.056  0.3090  2.8255  1.1217
  321SOL    HW2 1142   1.067   6.557   1.070 -0.1941  2.6283 -1.9900
  322SOL     OW 1143   3.918   3.076   7.294 -0.1683  0.3310  0.2818
  322SOL    HW1 1144   4.001   3.030   7.264  1.0405  1.5315  1.6460
  322SOL    HW2 1145   3.890   3.143   7.224  0.1084  0.0532 -0.1001
  323SOL     OW 1146   5.028   7.343   4.917 -0.0861 -0.4053 -0.4278
  323SOL    HW1 1147   5.103   7.382   4.971 -0.5816  1.8068 -1.2132
  323SOL    HW2 1148   4.953   7.318   4.979 -0.9278  2.7257  0.0241
  324SOL     OW 1149   3.422   0.008   8.097 -0.2955 -0.1799  0.0446
  324SOL    HW1 1150   3.410  -0.013   8.194  0.3990 -1.7705 -0.1829
  324SOL    HW2 1151   3.365  -0.052   8.043  2.4064 -2.3106 -0.6798
  325SOL     OW 1152   7.100   3.275   6.135  0.0798  0.2055  0.0153
  325SOL    HW1 1153   7.044   3.196   6.162  0.6865  0.2525  1.4638
  325SOL    HW2 1154   7.054   3.324   6.061 -0.6408 -1.1087 -0.4461
  326SOL     OW 1155   3.087   3.353   8.714 -0.5159  0.1148  0.3194
  326SOL    HW1 1156   2.990   3.331   8.708 -0.4642  0.2286 -1.9563
  326SOL    HW2 1157   3.098   3.452   8.721 -0.5917  0.3421 -1.9506
  327SOL     OW 1158   6.978   5.304   2.039 -0.5875 -0.2328  0.2755
  327SOL    HW1 1159   6.914   5.269   2.107 -0.3070  1.1361  1.2789
  327SOL    HW2 1160   7.009   5.394   2.066  1.8174 -0.8692 -0.1641
  328SOL     OW 1161   0.643   1.855   2.609  0.0224 -0.1988 -1.0085
  328SOL    HW1 1162   0.580   1.930   2.629 -1.3302 -1.2613 -1.1584
  328SOL    HW2 1163   0.727   1.867   2.662 -1.5371 -0.3878  1.6699
  329SOL     OW 1164   5.123   5.090   8.030 -0.2148  0.3792 -0.6861
  329SOL    HW1 1165   5.038   5.130   8.065 -0.6436 -0.9713 -0.1129
  329SOL    HW2 1166   5.175   5.160   7.982  0.0778  2.1947  2.0249
  330SOL     OW 1167   1.351   7.976   4.429  0.0927  0.3274 -0.5839
  330SOL    HW1 1168   1.380   7.900   4.487  2.5652  0.8502 -1.0369
  330SOL    HW2 1169   1.303   7.940   4.349  1.0643 -0.7816 -0.7078
  331SOL     OW 1170   1.867   8.792   4.276  0.0392 -0.2380 -0.1484
  331SOL    HW1 1171   1.929   8.742   4.337 -0.7361 -1.6823 -0.4954
  331SOL    HW2 1172   1.912   8.808   4.188 -0.3322 -2.1106 -0.7323
  332SOL     OW 1173   6.759   1.639   6.738  0.0798 -0.2527 -0.0441
  332SOL    HW1 1174   6.759   1.540   6.757  0.5366 -0.3391 -0.4745
  332SOL    HW2 1175   6.780   1.689   6.821  0.8049 -0.5662 -0.0278
  333SOL     OW 1176   2.888   2.942   1.877  0.1660 -0.2280  0.3971
  333SOL    HW1 1177   2.948   2.887   1.818  2.2751 -0.2220  2.3990
  333SOL    HW2 1178   2.915   3.038   1.872 -0.8804  0.0613 -0.0133
  334SOL     OW 1179   7.839   7.421   3.902  0.1184  0.4392  0.2655
  334SOL    HW1 1180   7.777   7.343   3.908 -0.0454  0.5753  0.3484
  334SOL    HW2 1181   7.824   7.482   3.980 -1.1985  1.6045 -0.8520
  335SOL     OW 1182   7.342   0.399   0.883  0.2090 -0.3663 -0.4566
  335SOL    HW1 1183   7.433   0.360   0.900 -0.2250 -1.5638 -0.7706
  335SOL    HW2 1184   7.349   0.471   0.814  0.8282 -0.9365 -1.0051
  336SOL     OW 1185   3.546   7.405   8.122 -0.0301 -0.6408  0.3725
  336SOL    HW1 1186   3.581   7.351   8.199  0.7581 -0.7380 -0.0408
  336SOL    HW2 1187   3.530   7.499   8.152  2.8848  0.0667  0.0660
  337SOL     OW 1188   1.425   1.910   5.124  0.8491 -0.2376 -0.1249
  337SOL    HW1 1189   1.420   1.812   5.143  2.3277 -0.1564  0.8027
  337SOL    HW2 1190   1.406   1.926   5.027 -3.4252 -1.0053  0.3998
  338SOL     OW 1191   7.375   6.460   2.133 -0.2598 -0.0091 -0.2285
  338SOL    HW1 1192   7.361   6.432   2.038 -0.5856 -1.2672  0.1635
  338SOL    HW2 1193   7.296   6.512   2.165 -0.3025  0.1227 -0.5473
  339SOL     OW 1194   0.779   6.375   4.582  0.3118  0.0510  0.5604
  339SOL    HW1 1195   0.814   6.341   4.670 -0.5394  0.7908  1.2025
  339SOL    HW2 1196   0.712   6.447   4.599 -1.1396 -0.9665 -0.6372
  340SOL     OW 1197   0.420   2.646   3.058  0.5812  0.0121 -0.0876
  340SOL    HW1 1198   0.431   2.687   3.149  0.4812 -0.6945  0.2487
  340SOL    HW2 1199   0.413   2.547   3.067  1.1523 -0.1161 -0.9188
  341SOL     OW 1200   3.601   3.510   8.123 -0.0558 -0.1453 -0.3845
  341SOL    HW1 1201   3.546   3.561   8.189  0.5177  1.2754 -0.9584
  341SOL    HW2 1202   3.549   3.433   8.089 -0.4769 -0.7507  1.4937
  342SOL     OW 1203   5.358   1.336   4.944 -0.3420 -0.3960  0.3029
  342SOL    HW1 1204   5.453   1.364   4.929  0.0049 -0.7790  1.5906
  342SOL    HW2 1205   5.320   1.299   4.859  0.0729  1.3662 -0.6934
  343SOL     OW 1206   4.354   5.819   5.477 -0.5884  0.2264  0.4599
  343SOL    HW1 1207   4.277   5.883   5.468 -0.3240  0.6229  0.9522
  343SOL    HW2 1208   4.440   5.868   5.464 -0.3942 -0.0823  0.5634
  344SOL     OW 1209   8.040   7.479   7.501  0.0176 -0.0528 -0.5025
  344SOL    HW1 1210   7.974   7.534   7.448 -1.1511 -1.7632 -0.9092
  344SOL    HW2 1211   8.008   7.472   7.596  0.8730  1.0339 -0.1088
  345SOL     OW 1212   4.173   1.279   4.250  0.0161  0.0782  0.3141
  345SOL    HW1 1213   4.260   1.277   4.200 -0.1270 -0.0485  0.0657
  345SOL    HW2 1214   4.164   1.195   4.303 -0.1525 -0.1072 -0.0051
  346SOL     OW 1215   1.524   5.795   8.641 -0.2921 -0.2186 -0.1722
  346SOL    HW1 1216   1.445   5.834   8.687  0.6782  0.5482  0.9174
  346SOL    HW2 1217   1.537   5.840   8.552 -1.3350 -0.6905 -0.5794
  347SOL     OW 1218   6.957   4.052   8.071 -0.8004 -0.1057  0.1013
  347SOL    HW1 1219   6.963   4.088   8.165 -2.0539 -2.0626  0.9849
  347SOL    HW2 1220   7.015   3.971   8.063 -1.8192 -0.8037 -0.3743
  348SOL     OW 1221   2.582   7.995   5.719  0.0815 -0.3684 -0.0574
  348SOL    HW1 1222   2.529   8.043   5.789 -0.9287  1.3396 -1.8999
  348SOL    HW2 1223   2.672   8.037   5.712 -0.1948  0.1603 -0.4952
  349SOL     OW 1224   7.470   6.135   8.335 -0.0025  0.2374 -0.1463
  349SOL    HW1 1225   7.468   6.060   8.269  0.5163  0.1002 -0.0080
  349SOL    HW2 1226   7.441   6.219   8.289  1.8443  0.4642 -0.9981
  350SOL     OW 1227   5.621   6.470   3.658  0.1726  0.1455  0.7811
  350SOL    HW1 1228   5.707   6.472   3.608 -0.2462 -0.2187  0.0319
  350SOL    HW2 1229   5.588   6.563   3.672 -0.2608  0.2130 -0.6063
  351SOL     OW 1230   4.238   6.601   7.360  0.5091  0.5620  0.1874
  351SOL    HW1 1231   4.250   6.535   7.286 -0.1926  0.1131  0.4663
  351SOL    HW2 1232   4.206   6.687   7.322 -0.5868  0.1035  0.0391
  352SOL     OW 1233   7.594   1.007   6.889  0.0888  0.3375  0.6737
  352SOL    HW1 1234   7.525   0.976   6.955  0.6583 -0.1788  1.0390
  352SOL    HW2 1235   7.619   0.931   6.829  0.3145  0.5344  0.5170
  353SOL     OW 1236   2.115   5.383   3.965  0.0686  0.1767  0.6296
  353SOL    HW1 1237   2.188   5.422   3.909  0.1115  0.1190  0.6457
  353SOL    HW2 1238   2.037   5.359   3.907 -0.1052  0.6368  0.6700
  354SOL     OW 1239   1.987   8.800   7.856 -0.0089 -0.4951 -0.0894
  354SOL    HW1 1240   2.074   8.802   7.807 -0.0466  1.7875 -0.1813
  354SOL    HW2 1241   1.913   8.779   7.792  0.4665 -3.3454  0.1434
  355SOL     OW 1242   1.792   4.725   1.185  0.3452 -0.4821 -0.1564
  355SOL    HW1 1243   1.877   4.681   1.157 -0.1038 -1.9073  0.6536
  355SOL    HW2 1244   1.786   4.727   1.284 -0.1368  0.4949 -0.1898
  356SOL     OW 1245   0.139   4.111   6.668  0.4470  0.0290 -0.1325
  356SOL    HW1 1246   0.064   4.110   6.735  0.7798 -1.5604  0.2491
  356SOL    HW2 1247   0.105   4.145   6.580 -0.7625 -0.8348 -0.0099
  357SOL     OW 1248   6.960   2.597   3.640 -0.2623 -0.1114  0.4211
  357SOL    HW1 1249   6.937   2.614   3.736 -2.1855 -1.3922  0.2420
  357SOL    HW2 1250   6.892   2.536   3.599  0.7749  0.0127 -1.6509
  358SOL     OW 1251   4.328   5.256   6.530 -0.0166  0.4115  0.4139
  358SOL    HW1 1252   4.407   5.232   6.474 -1.0954  1.6762 -1.7806
  358SOL    HW2 1253   4.325   5.196   6.611  1.2901 -1.9257 -1.1538
  359SOL     OW 1254   1.055   3.881   3.846 -0.4994  0.0991 -0.2779
  359SOL    HW1 1255   1.084   3.797   3.893  0.4680  0.5562 -0.0332
  359SOL    HW2 1256   1.105   3.959   3.884 -1.2080  0.7569 -0.6764
  360SOL     OW 1257   5.944   3.492   8.604 -0.5702 -0.0559 -0.7613
  360SOL    HW1 1258   5.953   3.424   8.677 -0.6307  0.1091 -0.5984
  360SOL    HW2 1259   5.849   3.496   8.573 -1.5299  2.7454  1.9821
  361SOL     OW 1260   0.554   1.076   5.450 -0.3620  0.3028  0.0215
  361SOL    HW1 1261   0.466   1.082   5.497  0.0852 -2.2235  1.3933
  361SOL    HW2 1262   0.550   1.003   5.382  0.3028  1.0414 -0.8244
  362SOL     OW 1263   5.006   6.335   4.066 -0.0343  0.1761  0.1094
  362SOL    HW1 1264   5.048   6.289   4.144 -0.4709 -1.4323 -0.5518
  362SOL    HW2 1265   4.921   6.380   4.096 -1.0661 -1.7765  0.3355
  363SOL     OW 1266   6.534   0.614   1.275  0.7343 -0.6119 -0.7656
  363SOL    HW1 1267   6.607   0.547   1.288  1.5535  0.5181  0.7164
  363SOL    HW2 1268   6.566   0.688   1.216  0.6837 -0.2863 -0.3904
  364SOL     OW 1269   2.057   1.284   2.123 -0.7183 -0.3959  0.1849
  364SOL    HW1 1270   2.156   1.298   2.127 -0.7750  0.0708  0.0264
  364SOL    HW2 1271   2.029   1.278   2.027 -0.9594  0.3496  0.2022
  365SOL     OW 1272   2.643   5.094   5.059  0.0627 -0.3883 -0.2597
  365SOL    HW1 1273   2.612   5.117   4.966 -1.6859  0.9530  0.5977
  365SOL    HW2 1274   2.565   5.064   5.114  0.9673 -0.6058  0.9473
  366SOL     OW 1275   4.932   7.559   2.296  0.0734 -0.1043 -0.3754
  366SOL    HW1 1276   4.846   7.512   2.276  0.6309 -0.9174 -0.9205
  366SOL    HW2 1277   5.007   7.493   2.297  0.8804  0.7610 -1.1701
  367SOL     OW 1278   7.701   5.665   7.232  0.0381 -0.5818  0.4477
  367SOL    HW1 1279   7.615   5.658   7.281 -1.1296 -1.0760 -1.5416
  367SOL    HW2 1280   7.699   5.744   7.170  0.5419 -1.2228 -0.4243
  368SOL     OW 1281   2.579   5.256   2.015 -0.0481  0.0946  0.3346
  368SOL    HW1 1282   2.524   5.188   1.967 -0.1632 -0.5940  1.4107
  368SOL    HW2 1283   2.597   5.225   2.108 -0.5505  1.7773  1.0323
  369SOL     OW 1284   4.554   1.782   2.673  0.3075 -0.1275  0.4478
  369SOL    HW1 1285   4.607   1.867   2.679  0.5563 -0.2011 -0.5383
  369SOL    HW2 1286   4.564   1.730   2.758  0.8139  0.4461  0.7435
  370SOL     OW 1287   1.091   7.941   4.840  0.0543 -0.3176  0.2234
  370SOL    HW1 1288   1.001   7.898   4.852 -0.5903  0.8571 -0.3118
  370SOL    HW2 1289   1.123   7.975   4.928 -0.9250  0.9894  0.0935
  371SOL     OW 1290   8.461   4.991   8.665  0.0216 -0.0575 -0.2715
  371SOL    HW1 1291   8.451   4.894   8.641 -0.0957  0.1162 -0.9362
  371SOL    HW2 1292   8.374   5.027   8.699 -0.0971 -0.0309 -0.6014
  372SOL     OW 1293   8.505   8.326   5.783 -0.3116 -0.4239  0.3792
  372SOL    HW1 1294   8.578   8.336   5.715 -0.8729 -0.8637 -0.3048
  372SOL    HW2 1295   8.420   8.364   5.747 -1.1415 -2.5675 -0.0795
  373SOL     OW 1296   2.542   0.635   0.025  0.0075 -0.1619 -0.2079
  373SOL    HW1 1297   2.465   0.571   0.034  0.1893 -0.1378  2.0788
  373SOL    HW2 1298   2.621   0.586  -0.013 -0.1497 -1.0663  0.5850
  374SOL     OW 1299   1.304   5.204   7.977  0.2047  0.0416  0.4427
  374SOL    HW1 1300   1.225   5.184   7.918  0.4469 -1.0392  0.4540
  374SOL    HW2 1301   1.287   5.167   8.069  1.0003 -0.8434  0.2526
  375SOL     OW 1302   7.418   3.293   5.588 -0.0868  0.1415 -0.4474
  375SOL    HW1 1303   7.335   3.248   5.621  0.6029 -0.1468  0.9675
  375SOL    HW2 1304   7.418   3.389   5.615  0.4971 -0.1032  0.4472
  376SOL     OW 1305   3.443   8.145   1.020  0.0589 -0.1531  0.4190
  376SOL    HW1 1306   3.386   8.153   1.102  0.8358  0.2637  0.9291
  376SOL    HW2 1307   3.432   8.226   0.963  0.4103  0.0967  0.7001
  377SOL     OW 1308   4.615   2.468   1.758 -0.2278 -0.8071 -0.4396
  377SOL    HW1 1309   4.666   2.521   1.689 -0.3642 -0.7344 -0.4845
  377SOL    HW2 1310   4.676   2.400   1.798 -0.2366 -1.0808 -0.8784
  378SOL     OW 1311   6.404   2.856   4.087  0.0400  0.1577 -0.2959
  378SOL    HW1 1312   6.480   2.822   4.033 -0.9425  0.7956 -2.1616
  378SOL    HW2 1313   6.323   2.864   4.029 -1.6727 -1.1411  1.7612
  379SOL     OW 1314   1.649   3.330   6.515  0.2137 -0.3195 -0.4036
  379SOL    HW1 1315   1.684   3.299   6.426  0.0559  1.8092 -1.2526
  379SOL    HW2 1316   1.611   3.422   6.506  0.4370  0.0606  1.9436
  380SOL     OW 1317   3.277   0.080   1.579 -0.4011 -0.3753  0.3920
  380SOL    HW1 1318   3.212   0.004   1.579 -0.4487 -0.3803 -1.3598
  380SOL    HW2 1319   3.347   0.065   1.649  0.0465 -2.4436 -0.4456
  381SOL     OW 1320   8.478   6.785   2.456 -0.2873  0.4943  0.7122
  381SOL    HW1 1321   8.438   6.877   2.464  0.4169  0.8209  0.5875
  381SOL    HW2 1322   8.442   6.740   2.374  0.1984  1.1018  0.1460
  382SOL     OW 1323   1.821   6.637   3.887 -0.4432 -0.2292 -0.2050
  382SOL    HW1 1324   1.870   6.711   3.933 -1.7359 -0.2264  1.2381
  382SOL    HW2 1325   1.772   6.674   3.808 -1.8048  0.6926  1.0105
  383SOL     OW 1326   0.265   8.776   1.547  0.1815  0.2737 -0.7143
  383SOL    HW1 1327   0.330   8.802   1.618 -1.3767  1.8037  0.2570
  383SOL    HW2 1328   0.277   8.679   1.524  1.5813  0.0735  0.6916
  384SOL     OW 1329   4.004   5.797   3.808 -0.2618 -0.4214  0.4676
  384SOL    HW1 1330   4.068   5.871   3.823  1.0534 -1.1422 -1.2174
  384SOL    HW2 1331   3.941   5.791   3.885 -0.6868  2.6579  0.4771
  385SOL     OW 1332   6.561   4.786   2.672 -0.2898 -0.3046  0.0960
  385SOL    HW1 1333   6.467   4.799   2.704 -0.2321  0.4477 -0.0309
  385SOL    HW2 1334   6.564   4.801   2.573 -0.2990 -1.7226 -0.1343
  386SOL     OW 1335   6.718   5.445   6.126  0.1665 -0.1738  0.0621
  386SOL    HW1 1336   6.812   5.434   6.096  0.1525  0.4372 -0.2257
  386SOL    HW2 1337   6.675   5.355   6.135  0.7236 -0.4472  0.0378
  387SOL     OW 1338   7.642   7.411   5.153 -0.1516  0.1329 -0.8015
  387SOL    HW1 1339   7.589   7.434   5.071 -0.2935  1.3498 -0.3912
  387SOL    HW2 1340   7.586   7.353   5.213 -0.3552 -0.0627 -1.1724
  388SOL     OW 1341   3.895   8.481   5.107  0.0560  0.2098 -0.4128
  388SOL    HW1 1342   3.876   8.467   5.204  0.9886  1.2532 -0.0525
  388SOL    HW2 1343   3.992   8.463   5.089 -0.0544  0.2738 -1.0943
  389SOL     OW 1344   8.477   1.478   3.595  0.1853  0.3576 -0.7330
  389SOL    HW1 1345   8.483   1.518   3.503 -2.9626  0.2315 -1.0782
  389SOL    HW2 1346   8.488   1.379   3.589  0.7405  0.4178 -0.8309
  390SOL     OW 1347   5.777   4.548   4.248  0.4314  0.0876  0.3578
  390SOL    HW1 1348   5.740   4.637   4.276 -2.3055 -0.9670  0.3886
  390SOL    HW2 1349   5.815   4.555   4.156  0.6462  1.3669  0.5288
  391SOL     OW 1350   3.768   5.803   2.270  0.3282  0.6500 -0.0608
  391SOL    HW1 1351   3.736   5.848   2.186  0.5406  0.3786 -0.2911
  391SOL    HW2 1352   3.838   5.735   2.247  0.4078  0.5917  0.3409
  392SOL     OW 1353   5.887   5.223   6.055 -0.0926 -0.0486 -0.2770
  392SOL    HW1 1354   5.893   5.131   6.016 -0.1705 -1.1866  2.2028
  392SOL    HW2 1355   5.828   5.280   5.997 -1.1629 -1.9593 -1.1475
  393SOL     OW 1356   0.725   3.820   7.451 -0.3768 -0.1295 -0.2306
  393SOL    HW1 1357   0.711   3.817   7.550  1.6751 -1.0697  0.0872
  393SOL    HW2 1358   0.685   3.904   7.414 -1.7683 -0.0862  1.2637
  394SOL     OW 1359   8.624   7.956   6.184 -0.0629  0.0682  0.0238
  394SOL    HW1 1360   8.561   7.881   6.166  2.3213 -1.4691 -2.7152
  394SOL    HW2 1361   8.610   8.028   6.115 -1.2524  1.5023  1.6744
  395SOL     OW 1362   2.877   7.690   0.920 -0.6133 -0.1792  0.6723
  395SOL    HW1 1363   2.949   7.688   0.851 -0.8794  0.5631  0.3681
  395SOL    HW2 1364   2.897   7.621   0.990 -0.4316 -1.0520 -0.2241
  396SOL     OW 1365   6.099   1.518   6.377 -0.5576 -0.2127 -0.4849
  396SOL    HW1 1366   6.058   1.482   6.461 -0.7878  0.3459 -0.3483
  396SOL    HW2 1367   6.197   1.531   6.390 -0.1157 -2.5136 -1.1425
  397SOL     OW 1368   7.489   2.334   3.793 -0.0181 -0.7294 -0.2631
  397SOL    HW1 1369   7.437   2.331   3.878 -0.4000 -0.7988 -0.4929
  397SOL    HW2 1370   7.542   2.250   3.783  2.6343  0.6123  1.4870
  398SOL     OW 1371   5.196   3.120   5.495  0.4475 -0.0780 -0.1034
  398SOL    HW1 1372   5.233   3.122   5.588 -1.0340  0.7615  0.5066
  398SOL    HW2 1373   5.097   3.133   5.499  0.3653 -0.0070 -1.8106
  399SOL     OW 1374   4.206   2.566   0.763 -0.1231  0.1790  0.4107
  399SOL    HW1 1375   4.207   2.656   0.718 -1.2355  0.1284  0.2523
  399SOL    HW2 1376   4.126   2.560   0.823  0.9451 -0.0341  1.8649
  400SOL     OW 1377   3.941   1.749   0.049  0.8568 -0.0769 -0.0709
  400SOL    HW1 1378   3.909   1.713   0.137  1.1736 -1.8340 -0.6384
  400SOL    HW2 1379   3.898   1.698  -0.025 -0.0821  1.9654 -0.9832
  401SOL     OW 1380   1.188   0.476   6.232  0.2574 -0.1263 -0.1272
  401SOL    HW1 1381   1.183   0.376   6.241 -0.9840 -0.0847 -0.2085
  401SOL    HW2 1382   1.234   0.499   6.146 -0.7922 -0.6540 -0.8527
  402SOL     OW 1383   5.837   0.682   7.482  0.0120 -0.1132  0.1592
  402SOL    HW1 1384   5.741   0.663   7.505 -0.4951  1.1679 -0.7961
  402SOL    HW2 1385   5.860   0.775   7.511  0.7209 -0.1111 -0.3970
  403SOL     OW 1386   2.007   7.632   6.657  0.5301 -0.1821 -0.0111
  403SOL    HW1 1387   1.986   7.571   6.580  1.9080 -1.6780  0.7281
  403SOL    HW2 1388   1.941   7.707   6.659 -0.2976 -0.7927 -1.8897
  404SOL     OW 1389   5.702   4.593   8.361  0.1442 -0.0147  0.6794
  404SOL    HW1 1390   5.797   4.604   8.391  1.0630 -0.7271 -1.7806
  404SOL    HW2 1391   5.666   4.682   8.332  1.5879 -0.3172 -2.4273
  405SOL     OW 1392   0.564   4.593   1.062 -0.2154  0.3629 -0.0952
  405SOL    HW1 1393   0.572   4.656   0.984  1.1200  0.4244  0.0621
  405SOL    HW2 1394   0.493   4.626   1.124  1.0381  2.2776  0.4460
  406SOL     OW 1395   6.168   2.947   1.385 -0.1645  0.3311 -0.2098
  406SOL    HW1 1396   6.267   2.931   1.388  0.1506  2.1560  0.2191
  406SOL    HW2 1397   6.136   2.945   1.291  0.2457 -0.4341 -0.3384
  407SOL     OW 1398   7.021   7.577   7.470  0.0832  0.1820  0.4253
  407SOL    HW1 1399   6.968   7.660   7.483 -0.5841 -0.4548  2.0247
  407SOL    HW2 1400   7.066   7.579   7.380 -2.1048  1.0297 -0.7071
  408SOL     OW 1401   6.038   1.302   0.493 -0.5857 -0.4368  0.1227
  408SOL    HW1 1402   6.002   1.212   0.467  1.4388 -1.4107  0.4999
  408SOL    HW2 1403   6.132   1.292   0.528 -0.2046  1.8655 -0.0801
  409SOL     OW 1404   4.165   4.238   1.390 -0.2317 -0.0330  0.0656
  409SOL    HW1 1405   4.078   4.231   1.438 -1.4774  1.0960 -1.9307
  409SOL    HW2 1406   4.178   4.158   1.332  1.4057 -1.5350  2.3299
  410SOL     OW 1407   6.177   2.721   3.572 -0.0731 -0.8972  0.5145
  410SOL    HW1 1408   6.222   2.791   3.516 -0.0402 -1.4892 -0.2190
  410SOL    HW2 1409   6.245   2.655   3.604 -0.3105 -1.4391 -0.0677
  411SOL     OW 1410   5.023   1.372   0.510  0.4457  0.1433 -0.2248
  411SOL    HW1 1411   5.009   1.400   0.605 -1.1376 -0.4280 -0.2534
  411SOL    HW2 1412   5.001   1.448   0.450  0.6932  0.2643 -0.1646
  412SOL     OW 1413   2.546   7.065   2.443 -0.1925  0.3242 -0.2764
  412SOL    HW1 1414   2.516   7.007   2.368 -2.1127  1.4478 -0.4559
  412SOL    HW2 1415   2.485   7.144   2.451  1.3750  1.5038  0.9550
  413SOL     OW 1416   8.600   0.249   4.608 -0.0008 -0.7620 -0.1971
  413SOL    HW1 1417   8.581   0.158   4.572 -0.3273 -1.6479  2.0115
  413SOL    HW2 1418   8.698   0.259   4.623 -0.0882 -1.2852  0.7953
  414SOL     OW 1419   2.885   2.928   2.555  0.4248 -0.0224 -0.9821
  414SOL    HW1 1420   2.786   2.944   2.560  0.6687  1.3410  0.4455
  414SOL    HW2 1421   2.922   2.920   2.647  1.9934  2.1635 -1.3255
  415SOL     OW 1422   4.149   4.571   0.276 -0.3298 -0.0560  0.5523
  415SOL    HW1 1423   4.157   4.662   0.317 -0.0954 -0.1441  0.7036
  415SOL    HW2 1424   4.094   4.577   0.193 -0.0665  0.2754  0.4015
  416SOL     OW 1425   8.327   3.945   2.813  0.5127  0.5352 -0.4111
  416SOL    HW1 1426   8.365   4.032   2.846  2.7584 -0.5687  0.1154
  416SOL    HW2 1427   8.401   3.888   2.777 -0.8878 -1.2255 -0.6264
  417SOL     OW 1428   0.530   5.967   3.636  0.1920 -0.2681 -0.0312
  417SOL    HW1 1429   0.581   5.982   3.551  0.5207  0.3200  0.2645
  417SOL    HW2 1430   0.551   6.040   3.700  0.3604 -0.9977  0.7587
  418SOL     OW 1431   1.646   6.406   1.269 -0.1796 -0.4341  0.3155
  418SOL    HW1 1432   1.656   6.501   1.298  0.0162 -0.8089  1.5088
  418SOL    HW2 1433   1.694   6.393   1.182 -2.0555  1.0743 -1.0510
  419SOL     OW 1434   8.095   2.325   3.812  0.6561 -0.8705  0.5088
  419SOL    HW1 1435   8.116   2.377   3.729  0.6015 -0.3346  0.8243
  419SOL    HW2 1436   8.020   2.261   3.792 -1.3802  1.2736  0.8438
  420SOL     OW 1437   3.616   7.363   4.781  0.2985 -0.5867  0.1838
  420SOL    HW1 1438   3.698   7.421   4.785  0.1938 -0.3992 -0.3873
  420SOL    HW2 1439   3.605   7.327   4.689 -0.6777 -0.0122  0.0634
  421SOL     OW 1440   5.381   4.449   0.076  0.2340 -0.5601  0.3290
  421SOL    HW1 1441   5.435   4.378   0.031  1.2119  0.7807 -0.6707
  421SOL    HW2 1442   5.291   4.454   0.034  0.4461 -0.6596 -0.1389
  422SOL     OW 1443   4.000   5.783   5.710 -0.3270  0.2541  0.2857
  422SOL    HW1 1444   3.928   5.790   5.641 -1.6162 -0.0937  1.5593
  422SOL    HW2 1445   3.975   5.714   5.778  1.2614  0.0533  0.7152
  423SOL     OW 1446   5.962   5.977   2.977  0.3869  0.0884  0.3403
  423SOL    HW1 1447   5.874   5.960   3.022  0.2402  0.3967  0.1704
  423SOL    HW2 1448   5.970   5.919   2.896  0.7909 -0.7091  0.9341
  424SOL     OW 1449   2.178   0.423   4.065  0.1940  0.0978 -0.3746
  424SOL    HW1 1450   2.206   0.327   4.072 -0.7449 -0.1195  0.8009
  424SOL    HW2 1451   2.098   0.430   4.006  0.9874  0.3495 -1.4632
  425SOL     OW 1452   7.063   8.289   7.512  0.4950  0.1967 -0.2244
  425SOL    HW1 1453   7.050   8.304   7.414 -0.2744 -0.5838 -0.2589
  425SOL    HW2 1454   7.086   8.193   7.528 -2.0072 -0.3580  0.5346
  426SOL     OW 1455   1.301   6.525   3.163 -0.9557  0.2192 -0.2662
  426SOL    HW1 1456   1.204   6.546   3.151 -1.1875  0.7122  2.0262
  426SOL    HW2 1457   1.318   6.497   3.258  1.3155  1.0471 -0.3651
  427SOL     OW 1458   2.430   6.965   0.500  0.3783  0.0998 -0.2418
  427SOL    HW1 1459   2.361   6.999   0.564 -0.6215  1.6099 -2.0383
  427SOL    HW2 1460   2.517   7.011   0.517 -0.1556  1.2910 -0.6049
  428SOL     OW 1461   1.525   5.381   6.986  0.7871 -0.4548 -0.2176
  428SOL    HW1 1462   1.463   5.458   7.000 -1.7595 -2.6562  1.4635
  428SOL    HW2 1463   1.550   5.341   7.074  1.0740 -2.2503 -1.0683
  429SOL     OW 1464   4.939   5.618   6.459  0.0831 -0.4069 -0.3091
  429SOL    HW1 1465   5.023   5.638   6.510 -0.1438  1.8300 -0.7182
  429SOL    HW2 1466   4.963   5.585   6.368  0.5528  0.8262 -0.6490
  430SOL     OW 1467   6.868   7.337   0.282 -0.0539 -0.2260  0.3886
  430SOL    HW1 1468   6.808   7.307   0.356  0.6920  0.5883  1.3538
  430SOL    HW2 1469   6.884   7.436   0.290 -0.0625 -0.0939 -0.9422
  431SOL     OW 1470   4.806   6.978   5.433 -0.1221  0.0185  0.1584
  431SOL    HW1 1471   4.737   7.010   5.368 -1.7766 -1.0264  1.3248
  431SOL    HW2 1472   4.783   7.009   5.525  0.3627 -1.2652  0.7378
  432SOL     OW 1473   4.362   7.356   8.547  0.1469 -0.0012 -0.2335
  432SOL    HW1 1474   4.446   7.408   8.527  0.4313 -0.2397  0.3140
  432SOL    HW2 1475   4.312   7.339   8.462 -0.1444  1.4833 -0.3877
  433SOL     OW 1476   4.292   1.006   4.039  0.4835 -0.4131 -0.2547
  433SOL    HW1 1477   4.256   0.974   4.127  1.1271  0.7019  0.4349
  433SOL    HW2 1478   4.315   1.103   4.046 -0.9187  0.1198 -2.1312
  434SOL     OW 1479   6.347   7.673   3.086 -0.1847 -0.3386 -1.1277
  434SOL    HW1 1480   6.252   7.646   3.075 -0.6979  1.5402 -1.6914
  434SOL    HW2 1481   6.371   7.741   3.016  1.5198 -0.6592 -0.8978
  435SOL     OW 1482   0.396   1.029   5.682 -0.3439  0.4292  0.3077
  435SOL    HW1 1483   0.365   0.937   5.658  0.1013  0.4237 -0.2596
  435SOL    HW2 1484   0.321   1.094   5.666 -1.6034 -0.1533  3.2980
  436SOL     OW 1485   4.240   1.690   0.748 -0.3960 -0.6714  0.1124
  436SOL    HW1 1486   4.221   1.740   0.663  2.4144 -0.0414 -0.2610
  436SOL    HW2 1487   4.219   1.749   0.826  0.1684  0.0525 -0.2628
  437SOL     OW 1488   4.343   1.468   1.029  0.0143  0.7045 -0.2841
  437SOL    HW1 1489   4.287   1.532   1.082  0.6005  1.7269 -0.8643
  437SOL    HW2 1490   4.396   1.519   0.962  1.5522 -0.2580  0.1637
  438SOL     OW 1491   4.748   0.904   1.938  0.0296  0.3072  0.0987
  438SOL    HW1 1492   4.842   0.874   1.921  0.2232  0.1796  1.3379
  438SOL    HW2 1493   4.694   0.826   1.968 -0.5521  0.3278 -0.8493
  439SOL     OW 1494   2.841   6.013   3.507  0.4342 -0.1017 -0.1995
  439SOL    HW1 1495   2.786   6.085   3.549  2.8035  2.3079 -0.9756
  439SOL    HW2 1496   2.847   6.029   3.408 -0.4943 -2.5142 -0.7283
  440SOL     OW 1497   0.710   1.001   2.163  0.2987 -0.0874  0.0673
  440SOL    HW1 1498   0.770   0.981   2.086 -1.0279  1.0631 -1.3313
  440SOL    HW2 1499   0.757   1.062   2.227  0.0601  2.4366 -1.9899
  441SOL     OW 1500   6.030   8.584   8.081  0.3844  0.0479 -0.3722
  441SOL    HW1 1501   6.129   8.570   8.080  0.7230  1.9829 -2.7335
  441SOL    HW2 1502   5.987   8.522   8.015 -0.1143 -1.1215  0.9785
  442SOL     OW 1503   1.367   7.253   6.622 -0.2835  0.1351 -0.0799
  442SOL    HW1 1504   1.281   7.256   6.673 -0.8288 -1.7016 -0.8087
  442SOL    HW2 1505   1.415   7.168   6.643  0.4000  0.2334 -1.1916
  443SOL     OW 1506   5.583   3.198   4.767 -0.0336  0.0196  0.3378
  443SOL    HW1 1507   5.551   3.274   4.823 -0.2706 -1.6695  2.6630
  443SOL    HW2 1508   5.679   3.211   4.744  1.5236 -1.1078  4.9837
  444SOL     OW 1509   3.777   4.414   8.212 -0.4899 -0.3650  0.1120
  444SOL    HW1 1510   3.678   4.406   8.218 -0.6605  0.5361 -1.0035
  444SOL    HW2 1511   3.806   4.407   8.116  0.6167 -1.4160  0.4942
  445SOL     OW 1512   1.475   8.474   5.104 -0.0208 -1.0013  0.0938
  445SOL    HW1 1513   1.496   8.545   5.036 -0.2926  2.4228  3.2608
  445SOL    HW2 1514   1.377   8.453   5.100 -0.2573  0.0035  0.0662
  446SOL     OW 1515   7.974   0.201   5.338 -0.5591 -0.2709 -0.1073
  446SOL    HW1 1516   7.914   0.141   5.285  0.0645 -0.6587 -0.3802
  446SOL    HW2 1517   8.070   0.179   5.318 -0.3226  0.2715  0.4032
  447SOL     OW 1518   2.395   6.477   6.815  0.5375 -0.4229 -0.2238
  447SOL    HW1 1519   2.365   6.555   6.761  1.3647 -0.4199 -0.6904
  447SOL    HW2 1520   2.493   6.462   6.802  0.3199 -1.8052 -0.4904
  448SOL     OW 1521   1.218   8.379   3.240 -0.1081  0.2329 -0.4047
  448SOL    HW1 1522   1.210   8.459   3.181  1.5516  0.9569  0.2988
  448SOL    HW2 1523   1.294   8.322   3.208  0.0046 -0.0119  0.2789
  449SOL     OW 1524   7.309   6.466   1.846  0.2357  0.7571 -0.5687
  449SOL    HW1 1525   7.331   6.562   1.860  1.3064  0.3448  0.8613
  449SOL    HW2 1526   7.371   6.426   1.779  1.8224  0.3948  1.0310
  450SOL     OW 1527   4.728   2.652   2.001  0.3104 -0.3747 -0.4655
  450SOL    HW1 1528   4.646   2.702   1.974  0.5584 -0.2729 -1.0601
  450SOL    HW2 1529   4.807   2.687   1.950  0.8421 -0.0439  0.5504
  451SOL     OW 1530   5.759   1.640   3.462  0.1436  0.0378  0.6837
  451SOL    HW1 1531   5.835   1.700   3.437  0.2394 -0.8965 -1.4576
  451SOL    HW2 1532   5.692   1.692   3.515 -0.2226  2.3516 -1.7995
  452SOL     OW 1533   8.192   8.671   7.158  0.2283 -0.2377 -0.1565
  452SOL    HW1 1534   8.122   8.739   7.138  1.1216  0.7441 -0.0073
  452SOL    HW2 1535   8.166   8.620   7.240 -0.9531 -0.8089 -0.8556
  453SOL     OW 1536   4.792   0.478   7.104 -0.4319  0.5790 -0.4577
  453SOL    HW1 1537   4.832   0.403   7.050 -2.0877 -0.2893 -0.5509
  453SOL    HW2 1538   4.704   0.448   7.141  0.0923  1.5822  1.7393
  454SOL     OW 1539   1.451   4.629   0.510  0.0774 -0.3480 -0.0720
  454SOL    HW1 1540   1.373   4.683   0.477 -1.2381 -1.1344  1.6267
  454SOL    HW2 1541   1.437   4.533   0.487  1.0363 -0.3895 -0.5602
  455SOL     OW 1542   6.021   6.272   4.944 -0.2560  0.2767  0.2071
  455SOL    HW1 1543   6.111   6.315   4.940 -0.4582  0.7260  0.4930
  455SOL    HW2 1544   5.978   6.292   5.032 -0.7081  0.2029  0.0042
  456SOL     OW 1545   2.604   3.604   5.514  0.8658  0.1415  0.0949
  456SOL    HW1 1546   2.578   3.512   5.545  0.2005  0.6428  1.0504
  456SOL    HW2 1547   2.631   3.659   5.593  0.0147  1.1706 -0.3119
  457SOL     OW 1548   7.118   7.562   4.325 -0.3482 -0.3202  0.1033
  457SOL    HW1 1549   7.187   7.499   4.289 -1.2865 -1.0816 -0.4146
  457SOL    HW2 1550   7.102   7.635   4.258  0.0933 -0.0191  0.3175
  458SOL     OW 1551   4.774   4.683   7.110  0.3306  0.1673 -0.3528
  458SOL    HW1 1552   4.703   4.742   7.148 -0.5324 -1.3070  0.4731
  458SOL    HW2 1553   4.732   4.614   7.051  1.5461  1.6978 -3.1498
  459SOL     OW 1554   6.206   0.037   6.927  0.3028  0.1477  0.8232
  459SOL    HW1 1555   6.263   0.060   7.006  0.6255  0.0576  0.6216
  459SOL    HW2 1556   6.112   0.066   6.943  0.5494  0.9208  0.8794
  460SOL     OW 1557   2.347   5.528   7.821  0.0795 -0.7376  0.1290
  460SOL    HW1 1558   2.367   5.626   7.820 -0.8357 -0.5405 -1.1046
  460SOL    HW2 1559   2.433   5.477   7.812  0.3806  0.0230 -1.9369
  461SOL     OW 1560   5.752   8.594   5.362 -0.0833 -0.6369 -0.1394
  461SOL    HW1 1561   5.658   8.625   5.351  0.4371  0.3974 -2.0914
  461SOL    HW2 1562   5.785   8.621   5.453 -0.4590  2.5314 -0.8237
  462SOL     OW 1563   6.467   1.306   1.037  0.1487  0.1976  0.2585
  462SOL    HW1 1564   6.504   1.308   1.130 -0.4687 -1.0806  0.5538
  462SOL    HW2 1565   6.454   1.211   1.009 -2.7642  0.5573  0.1327
  463SOL     OW 1566   1.517   1.547   3.209 -0.1989 -0.3581 -0.4182
  463SOL    HW1 1567   1.525   1.586   3.301 -3.5504 -0.1817 -0.0714
  463SOL    HW2 1568   1.499   1.620   3.143 -0.4235 -0.7397 -0.7825
  464SOL     OW 1569   8.601   7.176   1.370 -0.1861  0.6005  0.2178
  464SOL    HW1 1570   8.586   7.112   1.295  0.5283 -0.3250  0.8416
  464SOL    HW2 1571   8.661   7.250   1.339 -0.7335  0.7848 -0.4108
  465SOL     OW 1572   3.395   7.043   0.259  0.4190  0.3152  0.0100
  465SOL    HW1 1573   3.433   6.953   0.281 -0.3635  0.2622  1.2634
  465SOL    HW2 1574   3.309   7.032   0.210  1.5167  0.4322 -2.0713
  466SOL     OW 1575   5.912   6.069   7.786  0.2552 -0.0648  0.2432
  466SOL    HW1 1576   5.832   6.094   7.731  0.1780 -1.3994 -0.3092
  466SOL    HW2 1577   5.905   5.972   7.810  0.3894  0.4336  2.4709
  467SOL     OW 1578   2.195   6.122   3.737 -0.4817  0.1088  0.1097
  467SOL    HW1 1579   2.191   6.200   3.674  0.8631 -0.0651 -0.2222
  467SOL    HW2 1580   2.181   6.038   3.685 -0.2697  0.0221  0.1953
  468SOL     OW 1581   0.792   3.267   4.717  0.4355  0.3088 -0.3215
  468SOL    HW1 1582   0.758   3.350   4.673  1.0127  0.4124 -0.5833
  468SOL    HW2 1583   0.814   3.285   4.812  0.8320  0.5324 -0.4538
  469SOL     OW 1584   3.170   3.207   7.550 -0.6693 -0.0143  0.3188
  469SOL    HW1 1585   3.260   3.206   7.593  0.5385  1.3785 -1.9266
  469SOL    HW2 1586   3.181   3.213   7.450 -3.2369  1.5009  0.0285
  470SOL     OW 1587   4.676   3.554   0.862  0.4960  0.4092  0.1403
  470SOL    HW1 1588   4.754   3.605   0.826  0.3245 -0.6993 -1.9243
  470SOL    HW2 1589   4.602   3.618   0.886 -0.1788  1.2129 -3.4973
  471SOL     OW 1590   2.086   8.504   7.177  0.1938 -0.0178  0.5105
  471SOL    HW1 1591   2.026   8.577   7.210  0.1043  0.1573 -0.0161
  471SOL    HW2 1592   2.037   8.417   7.177 -0.2834  0.2300 -0.5063
  472SOL     OW 1593   3.311   8.851   5.765  0.8362  0.2493  0.4239
  472SOL    HW1 1594   3.298   8.763   5.811  0.8095  1.0708  2.0828
  472SOL    HW2 1595   3.407   8.862   5.740  0.7654 -0.4090 -0.1686
  473SOL     OW 1596   1.140   3.140   6.596 -0.3853 -0.0491  0.1546
  473SOL    HW1 1597   1.181   3.075   6.659  0.0724 -0.3027 -0.3973
  473SOL    HW2 1598   1.162   3.234   6.625 -1.1292 -0.1232  1.0075
  474SOL     OW 1599   2.360   3.786   6.188 -0.1749  0.2019 -0.4212
  474SOL    HW1 1600   2.452   3.820   6.168 -0.7356  0.8031 -2.1018
  474SOL    HW2 1601   2.366   3.691   6.218  1.2343  1.0794  2.4246
  475SOL     OW 1602   1.677   2.045   8.777  0.0568 -0.0358 -0.2534
  475SOL    HW1 1603   1.711   1.956   8.747 -0.1779  0.1544 -1.1061
  475SOL    HW2 1604   1.585   2.059   8.740 -0.6929 -0.2569  1.4636
  476SOL     OW 1605   3.604   0.574   2.780  0.0968  0.6225  0.2907
  476SOL    HW1 1606   3.552   0.526   2.710  1.3992 -1.4778  0.6957
  476SOL    HW2 1607   3.630   0.665   2.745 -1.1007  0.4786 -1.0878
  477SOL     OW 1608   2.786   0.364   7.637 -0.0158  0.4883 -0.3894
  477SOL    HW1 1609   2.798   0.269   7.666  0.7175  0.3185 -1.1906
  477SOL    HW2 1610   2.689   0.382   7.621 -0.2831  0.2105  0.8403
  478SOL     OW 1611   0.026   1.174   2.347 -0.3901 -0.3410 -0.0481
  478SOL    HW1 1612   0.098   1.212   2.289 -0.6429 -0.7282 -0.6217
  478SOL    HW2 1613   0.062   1.161   2.439  0.0506  0.1745 -0.1369
  479SOL     OW 1614   1.613   7.999   4.011  0.0907  0.2794 -0.6939
  479SOL    HW1 1615   1.643   7.939   4.085  0.4966  0.7876 -0.4368
  479SOL    HW2 1616   1.628   7.953   3.923 -1.7182 -0.9012 -0.4332
  480SOL     OW 1617   1.207   2.239   6.888 -0.3137  0.0935 -0.0323
  480SOL    HW1 1618   1.300   2.238   6.850  0.1441 -2.0436  1.0053
  480SOL    HW2 1619   1.144   2.201   6.821  0.1323 -1.5660  0.4437
  481SOL     OW 1620   5.433   6.695   7.024 -0.0530 -0.2224  0.0429
  481SOL    HW1 1621   5.481   6.775   7.061 -1.1020  0.3525  0.2198
  481SOL    HW2 1622   5.450   6.616   7.083 -0.9215  0.4549  1.2514
  482SOL     OW 1623   0.163   8.120   5.640  0.0950  0.1803  0.0817
  482SOL    HW1 1624   0.113   8.191   5.689 -0.4635 -1.4582  2.0562
  482SOL    HW2 1625   0.108   8.087   5.563 -1.6794 -1.1571  1.8434
  483SOL     OW 1626   2.611   5.739   7.038 -0.2401 -0.2218  0.1314
  483SOL    HW1 1627   2.586   5.669   7.106 -1.1245 -0.3566 -0.3212
  483SOL    HW2 1628   2.593   5.704   6.946  1.1610 -0.1196 -0.2035
  484SOL     OW 1629   4.250   0.605   1.140 -0.5221 -0.2298 -0.3161
  484SOL    HW1 1630   4.348   0.603   1.164 -0.8828 -0.5691  1.2715
  484SOL    HW2 1631   4.197   0.572   1.218 -1.8820 -0.5431 -1.3557
  485SOL     OW 1632   7.444   8.025   6.946  0.0695 -1.0356 -0.0829
  485SOL    HW1 1633   7.534   8.021   6.904 -0.3421 -1.4577 -0.9484
  485SOL    HW2 1634   7.409   7.933   6.961 -0.9547 -0.9074 -1.4154
  486SOL     OW 1635   0.166   6.080   1.415  0.0110  0.2309  0.5150
  486SOL    HW1 1636   0.260   6.108   1.436 -0.2571  0.0833  2.0403
  486SOL    HW2 1637   0.135   6.125   1.331  1.1623  0.9165  0.4451
  487SOL     OW 1638   6.797   2.954   1.687 -0.5385  0.2067 -0.0895
  487SOL    HW1 1639   6.737   2.922   1.760  1.6993  1.7660  2.6360
  487SOL    HW2 1640   6.768   3.045   1.657 -0.7843  0.0531 -0.3180
  488SOL     OW 1641   2.034   7.133   2.865  0.1154 -0.2247  0.2000
  488SOL    HW1 1642   2.127   7.125   2.830  0.5623 -0.3243  1.3725
  488SOL    HW2 1643   1.989   7.043   2.861  0.1288 -0.2148 -0.1978
  489SOL     OW 1644   5.252   0.500   0.797  0.2299  0.0593 -0.2615
  489SOL    HW1 1645   5.300   0.498   0.709  2.1118  2.0157  0.6169
  489SOL    HW2 1646   5.308   0.455   0.866  0.4306  1.6011  0.6146
  490SOL     OW 1647   6.902   7.392   2.327  0.1787 -0.1384  0.1192
  490SOL    HW1 1648   6.981   7.411   2.386 -0.7525  0.0692  1.3649
  490SOL    HW2 1649   6.876   7.476   2.279  0.3535 -0.0465  0.1824
  491SOL     OW 1650   6.329   8.531   1.863  0.5977  0.0079 -0.0640
  491SOL    HW1 1651   6.376   8.445   1.879 -0.5146 -0.6163 -0.0761
  491SOL    HW2 1652   6.341   8.591   1.943  1.7979  0.0740 -0.2621
  492SOL     OW 1653   2.485   2.995   0.048 -0.1880 -0.1972 -0.0060
  492SOL    HW1 1654   2.551   3.049  -0.004 -0.1178 -0.9790 -0.7501
  492SOL    HW2 1655   2.534   2.931   0.107 -0.2753 -0.1889  0.0759
  493SOL     OW 1656   7.334   1.268   1.116 -0.2712  0.4661 -0.8007
  493SOL    HW1 1657   7.278   1.328   1.058 -0.2911  1.2460 -0.0042
  493SOL    HW2 1658   7.328   1.299   1.211 -1.1526 -1.4711 -0.1756
  494SOL     OW 1659   3.276   2.573   3.937  0.0622 -0.1537  0.1528
  494SOL    HW1 1660   3.251   2.490   3.988  0.0279  0.0256  0.4259
  494SOL    HW2 1661   3.244   2.564   3.842 -2.0830  0.5477  0.7576
  495SOL     OW 1662   6.049   4.807   6.222 -0.2991 -0.5337 -0.8198
  495SOL    HW1 1663   6.050   4.709   6.242  0.0232 -0.3599  0.0519
  495SOL    HW2 1664   6.137   4.834   6.183  0.6413 -0.1110  1.4535
  496SOL     OW 1665   4.771   8.696   5.685 -0.2307  0.3456 -0.5126
  496SOL    HW1 1666   4.778   8.707   5.585  0.1725  2.0358 -0.3219
  496SOL    HW2 1667   4.732   8.779   5.725 -1.6381 -0.8214  0.6295
  497SOL     OW 1668   8.384   3.055   4.666  0.1339 -0.0669  0.2247
  497SOL    HW1 1669   8.437   2.996   4.604 -1.2110 -0.3870 -0.6569
  497SOL    HW2 1670   8.427   3.145   4.670  0.1137  0.0426 -1.3938
  498SOL     OW 1671   1.860   2.099   4.877  0.3318  0.0044  0.0645
  498SOL    HW1 1672   1.769   2.057   4.869  0.8312 -1.4728  1.6595
  498SOL    HW2 1673   1.883   2.111   4.973  2.2164 -0.5374 -0.2852
  499SOL     OW 1674   5.956   8.677   5.211 -0.1872 -0.2091 -0.0240
  499SOL    HW1 1675   6.035   8.679   5.271  0.3267 -2.3139 -0.5555
  499SOL    HW2 1676   5.872   8.665   5.265  0.1814 -1.1395  0.3653
  500SOL     OW 1677   7.781   8.071   7.186 -0.3161 -0.0423 -0.4415
  500SOL    HW1 1678   7.756   7.978   7.157  0.0599  0.1369 -1.3690
  500SOL    HW2 1679   7.823   8.067   7.276 -2.4936 -0.4897  0.6229
  501SOL     OW 1680   4.116   1.082   4.616 -0.3333 -0.4031 -0.3762
  501SOL    HW1 1681   4.037   1.116   4.667 -1.0978 -1.3386 -0.9073
  501SOL    HW2 1682   4.159   1.008   4.667  1.2021  1.1396  0.6771
  502SOL     OW 1683   1.357   8.167   5.148  0.1172  0.7545 -0.2288
  502SOL    HW1 1684   1.398   8.215   5.226  0.8316 -0.0644 -0.0857
  502SOL    HW2 1685   1.419   8.170   5.070  0.2596 -0.0871 -0.1594
  503SOL     OW 1686   2.262   3.276   8.216  0.0802  1.1577 -0.1042
  503SOL    HW1 1687   2.359   3.251   8.209 -0.1662 -0.4627  1.4380
  503SOL    HW2 1688   2.252   3.375   8.213  1.7785  1.3502 -0.2596
  504SOL     OW 1689   3.233   1.229   8.149  0.5608 -0.0419 -0.0553
  504SOL    HW1 1690   3.281   1.219   8.236  1.5896 -0.3142 -0.6367
  504SOL    HW2 1691   3.212   1.325   8.133  1.8463  0.2224 -0.2631
  505SOL     OW 1692   1.189   3.978   0.987  0.0533  0.2646  0.6234
  505SOL    HW1 1693   1.222   3.985   1.081 -0.8739 -1.3641  1.1184
  505SOL    HW2 1694   1.126   4.053   0.968  3.3978  3.0742 -0.1512
  506SOL     OW 1695   7.742   7.335   6.940  0.0512 -0.4771  0.0643
  506SOL    HW1 1696   7.755   7.275   7.020  1.0274  0.1813  0.4217
  506SOL    HW2 1697   7.831   7.374   6.914 -0.8914  3.0873  1.6313
  507SOL     OW 1698   0.382   2.905   5.068 -0.7245 -0.2072  0.3186
  507SOL    HW1 1699   0.309   2.970   5.090 -2.4763 -1.7782 -0.5151
  507SOL    HW2 1700   0.358   2.856   4.984  1.3112 -0.8279  0.0393
  508SOL     OW 1701   6.569   6.965   7.401 -0.1704  0.4614 -0.6679
  508SOL    HW1 1702   6.490   6.935   7.348  0.2385 -0.0690 -0.9841
  508SOL    HW2 1703   6.577   7.065   7.395 -0.5872  0.4788 -0.9619
  509SOL     OW 1704   8.623   8.601   5.061  0.1105 -0.8138  0.0517
  509SOL    HW1 1705   8.628   8.696   5.092  1.5344 -0.7865 -0.1599
  509SOL    HW2 1706   8.528   8.573   5.050 -0.3692  0.0729  1.6880
  510SOL     OW 1707   0.254   2.875   8.091 -0.0337 -1.0257 -0.3237
  510SOL    HW1 1708   0.172   2.911   8.048 -0.9680 -1.2581  1.2118
  510SOL    HW2 1709   0.238   2.781   8.122  0.0823 -0.3999  1.8100
  511SOL     OW 1710   0.381   1.651   5.366 -0.2103 -0.0408  0.2479
  511SOL    HW1 1711   0.294   1.661   5.414  0.1101 -0.5696  0.9609
  511SOL    HW2 1712   0.454   1.691   5.422  0.3454 -1.7404  0.7922
  512SOL     OW 1713   6.754   1.604   0.335 -0.2810 -0.7299  0.5646
  512SOL    HW1 1714   6.854   1.602   0.337 -0.0123  0.8605 -3.2303
  512SOL    HW2 1715   6.722   1.698   0.330 -1.9571 -1.2562  0.6040
  513SOL     OW 1716   2.963   3.337   7.668 -0.2778 -0.2404  0.3595
  513SOL    HW1 1717   3.053   3.299   7.647 -0.2462 -0.0763  0.1909
  513SOL    HW2 1718   2.894   3.265   7.662 -0.0218 -0.5983  1.5280
  514SOL     OW 1719   0.726   8.637   7.235 -0.2777  0.0908 -0.3559
  514SOL    HW1 1720   0.644   8.620   7.290 -0.2548 -0.8699 -0.6100
  514SOL    HW2 1721   0.759   8.551   7.196 -0.5491  0.7807 -2.2359
  515SOL     OW 1722   0.602   7.659   4.974 -0.2693  0.2079  0.4923
  515SOL    HW1 1723   0.644   7.689   5.059 -0.5016 -0.7586  0.9719
  515SOL    HW2 1724   0.667   7.603   4.922 -0.4707 -0.0704  0.5362
  516SOL     OW 1725   1.046   1.200   2.878 -0.5093 -0.6609 -0.7518
  516SOL    HW1 1726   1.040   1.290   2.834  0.8070  0.4839  1.2134
  516SOL    HW2 1727   1.142   1.173   2.885 -0.7116 -1.1067  0.7480
  517SOL     OW 1728   6.066   5.929   7.383 -0.3440 -0.2312 -0.0158
  517SOL    HW1 1729   6.038   5.997   7.315  0.6822 -1.0879 -1.3514
  517SOL    HW2 1730   5.987   5.872   7.407 -1.0375  0.9308  0.5689
  518SOL     OW 1731   1.740   0.372   3.572  0.3876  0.5165  0.0912
  518SOL    HW1 1732   1.783   0.327   3.494  0.0093  2.2441 -1.1925
  518SOL    HW2 1733   1.811   0.399   3.638  0.6484 -1.4810  0.6719
  519SOL     OW 1734   2.315   6.141   7.297  0.4726 -0.1687 -0.2436
  519SOL    HW1 1735   2.218   6.124   7.314  0.9130 -3.6903 -0.5446
  519SOL    HW2 1736   2.326   6.191   7.211 -1.0415 -0.1190 -0.4300
  520SOL     OW 1737   6.314   7.587   8.617 -0.0704 -0.5603  0.2198
  520SOL    HW1 1738   6.411   7.580   8.595 -0.2020 -1.8708 -0.0199
  520SOL    HW2 1739   6.293   7.680   8.645  0.7126  0.4530 -2.3137
  521SOL     OW 1740   0.190   0.531   2.367 -0.2299 -0.2258 -0.0261
  521SOL    HW1 1741   0.211   0.470   2.290 -2.2558  0.0672 -0.8680
  521SOL    HW2 1742   0.177   0.477   2.450  2.8697 -0.4843  0.4105
  522SOL     OW 1743   2.061   4.823   6.957 -0.3558 -0.2775  0.2127
  522SOL    HW1 1744   2.142   4.818   6.898  0.4241  0.6516  1.1913
  522SOL    HW2 1745   2.041   4.918   6.979 -1.0618 -0.5748  0.8921
  523SOL     OW 1746   6.685   5.434   7.087  0.1370  0.4424 -0.3169
  523SOL    HW1 1747   6.609   5.500   7.085  1.2322  1.7294 -1.8420
  523SOL    HW2 1748   6.668   5.367   7.159 -2.7538  0.3004 -0.9924
  524SOL     OW 1749   6.631   3.821   8.432  0.1599  0.2563 -0.4453
  524SOL    HW1 1750   6.684   3.902   8.409  2.1321 -0.8670 -0.1641
  524SOL    HW2 1751   6.571   3.796   8.356 -1.3676  2.5788 -0.0898
  525SOL     OW 1752   7.058   3.675   8.242  0.7179 -0.0688 -0.4664
  525SOL    HW1 1753   7.032   3.695   8.148  0.8157 -1.4761 -0.8033
  525SOL    HW2 1754   7.036   3.580   8.264 -0.5877  0.6035  1.3849
  526SOL     OW 1755   4.514   4.047   4.409 -0.1922 -0.0333 -0.2334
  526SOL    HW1 1756   4.495   4.008   4.319  0.7943 -1.7178  0.2220
  526SOL    HW2 1757   4.570   3.982   4.461 -0.5451  1.0024  1.5092
  527SOL     OW 1758   1.275   5.201   0.988 -0.0979  0.2047  0.2308
  527SOL    HW1 1759   1.250   5.147   0.908  1.5389 -2.1723  1.2185
  527SOL    HW2 1760   1.222   5.169   1.067  0.7050  0.2158  0.7812
  528SOL     OW 1761   7.547   8.857   4.825 -0.3050 -0.4129  0.5476
  528SOL    HW1 1762   7.542   8.802   4.742 -0.1871 -1.0559  0.9582
  528SOL    HW2 1763   7.623   8.825   4.881  0.9502  1.3713 -0.0503
  529SOL     OW 1764   5.268   4.894   5.651 -0.2369 -0.0243 -0.5030
  529SOL    HW1 1765   5.217   4.836   5.588  0.0301 -1.0083  0.1523
  529SOL    HW2 1766   5.351   4.928   5.606 -0.5456  0.0874 -0.9881
  530SOL     OW 1767   3.406   4.108   8.369 -0.6676 -0.0284  0.1212
  530SOL    HW1 1768   3.433   4.088   8.463  0.5696 -0.0470 -0.2211
  530SOL    HW2 1769   3.483   4.091   8.307 -0.8166  1.8701 -0.6682
  531SOL     OW 1770   5.154   6.285   1.297  0.0060  0.1446  0.2143
  531SOL    HW1 1771   5.137   6.363   1.357 -0.4424  1.6982 -1.8377
  531SOL    HW2 1772   5.237   6.301   1.244 -0.4855 -0.4457 -0.7493
  532SOL     OW 1773   2.421   5.408   6.265 -0.1415 -0.3230 -0.2653
  532SOL    HW1 1774   2.367   5.354   6.330 -0.1218  0.3078  0.2994
  532SOL    HW2 1775   2.359   5.464   6.210 -0.0729  1.1366  1.0483
  533SOL     OW 1776   3.322   1.654   6.898  0.5933 -0.1430 -0.2245
  533SOL    HW1 1777   3.384   1.716   6.947  1.0831 -0.6412 -0.2031
  533SOL    HW2 1778   3.231   1.695   6.893 -0.1918 -1.0724  3.3040
  534SOL     OW 1779   6.912   8.001   7.669  0.0425  0.1979  0.4318
  534SOL    HW1 1780   6.860   8.066   7.613  0.1543 -0.3702 -0.3458
  534SOL    HW2 1781   6.935   7.921   7.614  1.2489  0.1885  0.9198
  535SOL     OW 1782   5.532   4.477   6.078  0.2073 -0.1970 -0.2748
  535SOL    HW1 1783   5.548   4.560   6.132 -0.8826 -1.4066  2.0494
  535SOL    HW2 1784   5.480   4.412   6.132 -0.2748 -1.8465 -2.5834
  536SOL     OW 1785   6.747   7.130   0.083  0.2375 -0.0537  0.4002
  536SOL    HW1 1786   6.844   7.103   0.086  0.7333  1.5785 -0.1187
  536SOL    HW2 1787   6.707   7.102  -0.004  0.3339 -0.4197  0.4715
  537SOL     OW 1788   5.010   2.362   1.770  0.6423  0.1410  0.2337
  537SOL    HW1 1789   5.016   2.321   1.679  0.8506  0.0192  0.3024
  537SOL    HW2 1790   4.916   2.354   1.804  0.1337  1.7479 -0.6996
  538SOL     OW 1791   0.255   2.013   6.458  0.1009  0.5274 -0.0405
  538SOL    HW1 1792   0.310   2.093   6.436  0.8155 -0.0247 -0.2969
  538SOL    HW2 1793   0.178   2.007   6.394  0.3112  0.7427 -0.3154
  539SOL     OW 1794   2.387   1.469   3.650 -0.5046 -0.1864 -0.2464
  539SOL    HW1 1795   2.368   1.413   3.569 -0.4505 -0.1924 -0.2549
  539SOL    HW2 1796   2.306   1.522   3.673  0.0408  1.2079 -1.3972
  540SOL     OW 1797   2.756   4.746   6.323  0.6090  0.2959 -0.5269
  540SOL    HW1 1798   2.698   4.772   6.245 -0.3999 -2.5840 -0.8710
  540SOL    HW2 1799   2.713   4.777   6.408 -1.2510 -1.2477 -0.8209
  541SOL     OW 1800   1.509   5.784   0.171  0.0940 -0.0463  0.1260
  541SOL    HW1 1801   1.480   5.732   0.250  1.1538 -0.2019  0.4276
  541SOL    HW2 1802   1.526   5.879   0.198  3.9957 -0.8391  0.9971
  542SOL     OW 1803   0.013   3.419   5.442 -0.0449  0.2028  0.0579
  542SOL    HW1 1804   0.070   3.502   5.434  1.4175 -0.7993 -0.3042
  542SOL    HW2 1805   0.008   3.392   5.538 -0.9837  1.0001  0.2481
  543SOL     OW 1806   3.734   3.938   7.951  0.4221 -0.3228  0.2003
  543SOL    HW1 1807   3.800   3.954   7.878  0.9150  1.7120  1.0265
  543SOL    HW2 1808   3.642   3.938   7.913  0.6734  0.7048 -0.4647
  544SOL     OW 1809   3.235   8.183   3.844  0.4613  0.0984 -0.2322
  544SOL    HW1 1810   3.193   8.094   3.826  0.4797  0.1695 -0.6587
  544SOL    HW2 1811   3.184   8.231   3.915  1.3131 -0.8502  1.0600
  545SOL     OW 1812   2.792   0.492   6.005  0.2495 -0.2690  0.0425
  545SOL    HW1 1813   2.721   0.427   6.030  0.9003 -1.9357 -2.0780
  545SOL    HW2 1814   2.882   0.453   6.028  0.5946  0.6046  0.2062
  546SOL     OW 1815   0.392   1.729   3.610 -0.0552  0.2902 -0.7329
  546SOL    HW1 1816   0.446   1.647   3.592 -0.6248 -0.0426 -0.9539
  546SOL    HW2 1817   0.380   1.739   3.709  0.9626  0.7347 -0.6457
  547SOL     OW 1818   8.642   4.866   3.957 -0.0426 -0.2072 -0.5202
  547SOL    HW1 1819   8.731   4.832   3.925  0.2878  0.5572 -0.4364
  547SOL    HW2 1820   8.581   4.789   3.972  0.6768 -0.7656 -0.3705
  548SOL     OW 1821   3.228   5.154   6.492 -0.0515 -0.1569  0.0283
  548SOL    HW1 1822   3.268   5.091   6.558  0.7285 -1.3742 -1.5414
  548SOL    HW2 1823   3.191   5.102   6.415 -2.3610  1.1169  0.1995
  549SOL     OW 1824   0.311   7.850   1.938 -0.1049  0.3314  0.1768
  549SOL    HW1 1825   0.304   7.804   2.027 -2.9909 -0.3036 -0.2529
  549SOL    HW2 1826   0.270   7.941   1.944 -0.4371  0.2371 -0.5217
  550SOL     OW 1827   4.804   7.684   4.704  0.3961 -0.0520 -0.5478
  550SOL    HW1 1828   4.830   7.753   4.636 -0.7969  1.1361  0.1636
  550SOL    HW2 1829   4.731   7.720   4.762  0.0832 -1.7534  0.1624
  551SOL     OW 1830   0.206   4.121   7.727 -0.2974 -0.2227  0.1072
  551SOL    HW1 1831   0.178   4.026   7.711  2.2347 -1.4423  2.0701
  551SOL    HW2 1832   0.222   4.135   7.825  0.9630  1.7283 -0.3214
  552SOL     OW 1833   6.732   6.992   6.503 -0.8165 -0.4798 -0.5012
  552SOL    HW1 1834   6.824   6.955   6.518 -1.0713 -0.5856  0.8710
  552SOL    HW2 1835   6.721   7.076   6.556 -1.8706 -1.0595  0.2413
  553SOL     OW 1836   4.762   0.048   0.918 -0.3687  0.3364 -0.3805
  553SOL    HW1 1837   4.692  -0.011   0.877  0.8735  0.7135 -3.2861
  553SOL    HW2 1838   4.801   0.107   0.848  0.5205  2.5842  1.8421
  554SOL     OW 1839   0.608   7.908   4.657  0.4156 -0.3166  0.3549
  554SOL    HW1 1840   0.659   7.822   4.659  0.0740 -0.5286  0.2030
  554SOL    HW2 1841   0.511   7.888   4.642  0.2275  0.0523  1.0692
  555SOL     OW 1842   8.184   7.905   5.126 -0.4897  0.1385  0.4625
  555SOL    HW1 1843   8.192   7.996   5.166  1.6372 -0.0245  0.5636
  555SOL    HW2 1844   8.181   7.912   5.027 -1.1279  0.3402  0.4918
  556SOL     OW 1845   1.551   5.061   8.412 -0.0230 -0.5914  0.0733
  556SOL    HW1 1846   1.596   5.004   8.482 -0.9959 -1.0214  0.3730
  556SOL    HW2 1847   1.459   5.086   8.444  0.2354  0.8112 -0.2453
  557SOL     OW 1848   1.237   7.522   8.024  0.0971 -0.3257 -0.3872
  557SOL    HW1 1849   1.266   7.427   8.017 -1.6532 -0.8058 -2.0705
  557SOL    HW2 1850   1.167   7.531   8.095  0.5398 -0.2083  0.0372
  558SOL     OW 1851   0.886   1.617   5.053 -0.4325 -0.2754 -0.2843
  558SOL    HW1 1852   0.926   1.525   5.057 -1.1212 -0.5808 -0.2900
  558SOL    HW2 1853   0.848   1.633   4.962  3.2354  1.5645 -1.6877
  559SOL     OW 1854   5.030   7.590   4.108 -0.4502  0.2050 -0.5327
  559SOL    HW1 1855   5.012   7.648   4.028  1.1024  0.7185 -0.5468
  559SOL    HW2 1856   5.070   7.646   4.181  1.0167 -0.8319 -0.5168
  560SOL     OW 1857   6.083   2.286   1.024 -0.3542 -0.2992  0.7315
  560SOL    HW1 1858   6.084   2.188   1.003  1.5855 -0.7430  2.5291
  560SOL    HW2 1859   6.177   2.320   1.024 -1.0459  1.7861 -0.5949
  561SOL     OW 1860   5.152   5.299   6.475  0.1248  0.4207 -0.1681
  561SOL    HW1 1861   5.111   5.351   6.400 -0.5282  0.3375  0.1199
  561SOL    HW2 1862   5.094   5.220   6.496  0.6258  0.1018  0.0148
  562SOL     OW 1863   3.938   1.230   4.787 -0.1988 -0.2183  0.1687
  562SOL    HW1 1864   3.844   1.204   4.809  0.0544 -0.0306  1.5454
  562SOL    HW2 1865   3.952   1.327   4.806  0.1048 -0.0906 -0.6526
  563SOL     OW 1866   4.367   1.117   7.676  0.4636 -0.2077  0.1985
  563SOL    HW1 1867   4.430   1.060   7.623  1.3228  0.6306  0.2979
  563SOL    HW2 1868   4.412   1.203   7.701 -0.6734  0.3431  0.4121
  564SOL     OW 1869   6.236   4.121   4.663 -0.0279 -0.1539 -0.2924
  564SOL    HW1 1870   6.183   4.038   4.653 -1.2495  0.5881 -0.1415
  564SOL    HW2 1871   6.181   4.200   4.638 -0.5635  1.0831  3.9297
  565SOL     OW 1872   6.886   0.299   4.393 -0.0939 -0.5619 -0.9505
  565SOL    HW1 1873   6.941   0.218   4.377  0.1884 -0.6066  0.1971
  565SOL    HW2 1874   6.945   0.380   4.398 -0.3346 -0.3327 -1.6976
  566SOL     OW 1875   0.981   7.046   4.357  0.4041 -0.0991  0.2806
  566SOL    HW1 1876   1.065   7.050   4.410  1.8620 -3.1488 -1.5635
  566SOL    HW2 1877   0.905   7.022   4.418  1.4918 -0.7288  1.4459
  567SOL     OW 1878   7.715   3.000   7.749  0.7633  0.4244 -0.1547
  567SOL    HW1 1879   7.689   3.085   7.704 -0.2432 -0.0118 -0.4366
  567SOL    HW2 1880   7.756   3.020   7.838 -0.2009  1.1783  0.1392
  568SOL     OW 1881   8.738   0.108   0.996 -0.3338 -0.6936  0.3320
  568SOL    HW1 1882   8.785   0.062   0.921  1.0170 -0.2938  0.9049
  568SOL    HW2 1883   8.788   0.093   1.081 -2.0908 -1.5371  1.2702
  569SOL     OW 1884   0.251   1.138   0.826 -0.0252 -0.5434 -0.0095
  569SOL    HW1 1885   0.252   1.236   0.807 -0.8667 -0.2056  1.5311
  569SOL    HW2 1886   0.341   1.099   0.805  0.1519  0.4182 -1.1798
  570SOL     OW 1887   1.397   6.589   7.156  0.3979  0.0441 -0.1263
  570SOL    HW1 1888   1.424   6.504   7.200 -0.5812  0.1666  0.7379
  570SOL    HW2 1889   1.477   6.631   7.114  0.5116 -2.5691 -2.8935
  571SOL     OW 1890   8.277   2.086   2.731  0.1483  0.2987 -0.2216
  571SOL    HW1 1891   8.341   2.088   2.807 -0.9858 -1.0974  0.8295
  571SOL    HW2 1892   8.244   1.992   2.717 -0.4850  0.7048 -1.7538
  572SOL     OW 1893   2.219   3.278   2.977  0.0476  0.0335 -0.7241
  572SOL    HW1 1894   2.260   3.212   3.039  0.4118  0.4996 -0.4571
  572SOL    HW2 1895   2.189   3.358   3.029  1.1939  0.8356 -1.2538
  573SOL     OW 1896   6.282   0.410   3.228  0.8470  0.6307  0.3842
  573SOL    HW1 1897   6.338   0.414   3.145  1.9848 -0.8864  1.0268
  573SOL    HW2 1898   6.233   0.496   3.240  2.5992  1.8012 -0.5331
  574SOL     OW 1899   0.021   0.771   5.109 -0.1276 -0.3872  0.7238
  574SOL    HW1 1900   0.086   0.714   5.060 -0.2538  0.3695 -0.3657
  574SOL    HW2 1901  -0.055   0.794   5.049  0.8267  2.4551  0.4224
  575SOL     OW 1902   5.361   7.299   3.409  0.0685  0.0149  0.1781
  575SOL    HW1 1903   5.311   7.351   3.478 -0.4245 -0.1276 -0.0704
  575SOL    HW2 1904   5.459   7.319   3.417  0.1353 -0.7346  1.5653
  576SOL     OW 1905   2.247   8.642   4.154 -0.1367  0.1660 -0.3255
  576SOL    HW1 1906   2.310   8.582   4.104  0.7737  0.7614  0.0637
  576SOL    HW2 1907   2.154   8.628   4.122  0.0377 -1.5096 -0.1879
  577SOL     OW 1908   6.149   5.203   1.144 -0.0516 -0.2756 -0.1426
  577SOL    HW1 1909   6.244   5.232   1.160  0.6757 -1.6692 -1.6071
  577SOL    HW2 1910   6.133   5.194   1.046 -1.4819 -0.7417  0.1157
  578SOL     OW 1911   0.470   3.256   4.654  0.2879  0.4153  0.2067
  578SOL    HW1 1912   0.394   3.300   4.607  0.8796  1.0993 -0.1469
  578SOL    HW2 1913   0.522   3.201   4.590 -0.4592 -0.8523  0.6536
  579SOL     OW 1914   5.710   4.829   3.220  0.2238 -0.4736 -0.2656
  579SOL    HW1 1915   5.644   4.807   3.148  0.7440  0.4186 -1.0310
  579SOL    HW2 1916   5.690   4.775   3.302  0.3338 -2.3860 -1.4570
  580SOL     OW 1917   3.687   8.733   0.721 -0.0268  0.1883  0.0709
  580SOL    HW1 1918   3.748   8.797   0.768 -1.2382  1.1418  0.4013
  580SOL    HW2 1919   3.733   8.699   0.638  1.5418 -0.3520  1.1130
  581SOL     OW 1920   4.672   1.738   1.419 -0.8746 -0.1646 -0.3035
  581SOL    HW1 1921   4.700   1.669   1.485 -2.0930 -2.7284 -2.2814
  581SOL    HW2 1922   4.751   1.765   1.364 -0.6325 -0.9656 -0.3584
  582SOL     OW 1923   6.429   7.876   2.050 -0.4510  1.0927 -0.0253
  582SOL    HW1 1924   6.517   7.889   2.095 -0.7618  0.9697  0.6317
  582SOL    HW2 1925   6.439   7.809   1.976 -0.3258 -0.1910  1.1188
  583SOL     OW 1926   2.969   5.063   3.466  0.7252 -0.1113  0.0683
  583SOL    HW1 1927   2.890   5.012   3.431  0.1999  0.4903  0.3502
  583SOL    HW2 1928   3.009   5.012   3.543  0.2360 -0.1371  0.3165
  584SOL     OW 1929   5.293   5.819   6.156 -0.2757  0.2414 -0.0726
  584SOL    HW1 1930   5.370   5.806   6.219 -1.1627  1.1013  1.2332
  584SOL    HW2 1931   5.312   5.895   6.095 -0.0528  0.4030  0.1951
  585SOL     OW 1932   7.487   5.172   5.506  0.0966  0.4625  0.1710
  585SOL    HW1 1933   7.542   5.090   5.518 -1.5329 -0.5475  1.0868
  585SOL    HW2 1934   7.546   5.253   5.510  1.4878 -0.5525  1.1868
  586SOL     OW 1935   6.883   5.313   5.355  0.3262 -0.0840 -0.1864
  586SOL    HW1 1936   6.801   5.320   5.412  0.4277  2.8508 -0.2600
  586SOL    HW2 1937   6.956   5.268   5.406  0.1076  1.6060  1.7357
  587SOL     OW 1938   5.333   4.745   8.404 -0.1622  0.2384 -0.2319
  587SOL    HW1 1939   5.303   4.713   8.494  0.7187 -0.7530 -0.2605
  587SOL    HW2 1940   5.280   4.698   8.333  0.6254 -0.6480 -0.2576
  588SOL     OW 1941   2.492   6.882   5.732  0.0753 -0.7710  0.2714
  588SOL    HW1 1942   2.471   6.801   5.677 -0.3798 -0.3713 -0.1486
  588SOL    HW2 1943   2.434   6.883   5.813 -2.4999  0.9197 -1.4426
  589SOL     OW 1944   7.237   1.349   0.878  0.4439  0.1296  0.2277
  589SOL    HW1 1945   7.248   1.293   0.796  3.2399  0.3765  0.3418
  589SOL    HW2 1946   7.239   1.446   0.853 -2.0482  0.2582  0.2916
  590SOL     OW 1947   6.052   6.834   7.483 -0.6745 -0.5197  0.0927
  590SOL    HW1 1948   6.131   6.787   7.521 -0.3228  0.0991  0.1484
  590SOL    HW2 1949   6.037   6.919   7.535 -0.9415 -0.2828 -0.3714
  591SOL     OW 1950   6.072   4.757   1.292  0.1190  0.5759 -0.4878
  591SOL    HW1 1951   6.029   4.687   1.235 -1.4934 -2.1203  3.5703
  591SOL    HW2 1952   6.170   4.739   1.299 -0.0758 -0.5409 -0.4788
  592SOL     OW 1953   4.600   2.809   4.519  0.0771 -0.6496  0.6886
  592SOL    HW1 1954   4.606   2.851   4.609 -3.3379  2.2153 -0.1700
  592SOL    HW2 1955   4.652   2.863   4.453 -1.2317  0.0955  0.2249
  593SOL     OW 1956   2.499   3.304   2.748 -0.5049  0.3899 -0.4101
  593SOL    HW1 1957   2.440   3.229   2.718 -0.7930  0.2980  0.3574
  593SOL    HW2 1958   2.455   3.353   2.823  0.2103  0.5772 -0.1019
  594SOL     OW 1959   0.454   1.973   6.873 -0.1128 -0.5530 -0.0371
  594SOL    HW1 1960   0.518   1.902   6.900  0.4415 -0.1336 -0.2328
  594SOL    HW2 1961   0.434   2.032   6.951 -0.1220 -0.5756 -0.0225
  595SOL     OW 1962   7.071   7.483   3.189  0.7282  0.1096  0.2491
  595SOL    HW1 1963   6.972   7.497   3.179  0.5764 -0.5352  0.8016
  595SOL    HW2 1964   7.114   7.570   3.214  0.3793  0.5120 -0.5004
  596SOL     OW 1965   4.419   0.480   3.547 -0.2040 -0.2317  0.1130
  596SOL    HW1 1966   4.486   0.486   3.474 -1.0822 -3.3220 -1.1246
  596SOL    HW2 1967   4.329   0.458   3.508 -0.9389 -0.9075  2.0560
  597SOL     OW 1968   0.715   3.127   7.244 -0.1258  0.3053 -0.0262
  597SOL    HW1 1969   0.755   3.107   7.155 -0.6808  1.5583 -0.5945
  597SOL    HW2 1970   0.763   3.076   7.315  1.9508  1.1530 -0.7475
  598SOL     OW 1971   2.099   5.363   7.409 -0.3389  0.1460 -0.1321
  598SOL    HW1 1972   2.092   5.278   7.462  2.6291 -0.0846  0.0488
  598SOL    HW2 1973   2.137   5.435   7.467  2.6850 -0.0284 -1.7064
  599SOL     OW 1974   0.043   2.957   2.279 -0.2181 -0.1755  0.0768
  599SOL    HW1 1975  -0.042   2.923   2.239 -0.5042  0.9256 -0.2746
  599SOL    HW2 1976   0.086   3.021   2.216  0.7901 -0.5880  0.3304
  600SOL     OW 1977   4.396   8.074   2.619 -0.0358  0.0112  0.1194
  600SOL    HW1 1978   4.367   8.168   2.637  0.5761  0.4070 -0.8962
  600SOL    HW2 1979   4.486   8.075   2.575 -0.7359 -0.9901 -1.3895
  601SOL     OW 1980   4.520   0.511   8.457 -0.1724 -0.2461  0.2732
  601SOL    HW1 1981   4.577   0.429   8.467  1.0433  0.4490 -0.6671
  601SOL    HW2 1982   4.464   0.523   8.539  0.6137 -1.2791  0.9863
  602SOL     OW 1983   0.880   7.502   1.103 -0.2501 -0.1706  0.0865
  602SOL    HW1 1984   0.931   7.427   1.061  0.2846  0.0525  0.3307
  602SOL    HW2 1985   0.943   7.572   1.135 -0.6061 -0.4975  1.6026
  603SOL     OW 1986   2.175   0.282   2.669  0.4249 -0.0036  0.0631
  603SOL    HW1 1987   2.123   0.283   2.755  0.9072 -3.3143  0.5189
  603SOL    HW2 1988   2.113   0.259   2.594  0.5324  0.0293 -0.0352
  604SOL     OW 1989   1.449   2.352   1.315 -0.1045 -0.0651 -0.0185
  604SOL    HW1 1990   1.472   2.255   1.318 -0.7160 -0.3985 -2.8498
  604SOL    HW2 1991   1.444   2.382   1.219  0.2741  2.8312  0.7748
  605SOL     OW 1992   6.297   6.335   7.264 -0.2176 -0.0676  0.2748
  605SOL    HW1 1993   6.373   6.382   7.309  0.3986 -1.1810  0.4102
  605SOL    HW2 1994   6.291   6.365   7.168 -0.5901  1.1717  0.6688
  606SOL     OW 1995   7.145   0.183   5.747 -0.0139  0.5256 -0.3925
  606SOL    HW1 1996   7.105   0.260   5.698 -1.6125 -0.6879 -1.1024
  606SOL    HW2 1997   7.145   0.103   5.688  0.2777 -0.3734  0.7854
  607SOL     OW 1998   5.085   3.166   3.811 -0.2601  0.2412  0.5071
  607SOL    HW1 1999   5.004   3.154   3.754 -1.3722  0.1014  2.0394
  607SOL    HW2 2000   5.080   3.103   3.888  1.3197  0.2485  0.6437
  608SOL     OW 2001   7.057   3.762   6.720 -0.5950  0.4191  0.4254
  608SOL    HW1 2002   7.087   3.841   6.772 -2.3736  0.7339  1.0450
  608SOL    HW2 2003   7.002   3.792   6.642  0.6401 -0.1230 -0.6884
  609SOL     OW 2004   5.105   1.215   5.639  0.2999 -0.3093  0.4881
  609SOL    HW1 2005   5.130   1.146   5.706  3.4867  0.1819 -0.0478
  609SOL    HW2 2006   5.111   1.305   5.680 -1.4865 -0.1707  0.5186
  610SOL     OW 2007   0.790   2.111   2.508 -0.2780 -0.6747 -0.0124
  610SOL    HW1 2008   0.751   2.146   2.593 -2.3218 -1.4300 -0.5633
  610SOL    HW2 2009   0.851   2.035   2.527  0.2096 -0.0739  0.8458
  611SOL     OW 2010   5.596   4.663   3.381  0.5608  0.1876  0.1253
  611SOL    HW1 2011   5.522   4.611   3.337  1.8161 -0.4363 -1.3317
  611SOL    HW2 2012   5.653   4.600   3.435  1.3759  0.2272 -0.6606
  612SOL     OW 2013   1.887   3.590   6.851 -0.2659 -0.3339 -0.0510
  612SOL    HW1 2014   1.787   3.590   6.853 -0.2870  0.5048 -0.7396
  612SOL    HW2 2015   1.920   3.496   6.859 -1.0844 -0.5532  0.9550
  613SOL     OW 2016   8.584   6.901   0.295  0.0602 -0.0342  0.2568
  613SOL    HW1 2017   8.509   6.910   0.360 -0.4203 -0.0419 -0.2818
  613SOL    HW2 2018   8.579   6.811   0.251 -0.0872  0.2632 -0.3488
  614SOL     OW 2019   5.020   5.836   8.447 -0.4988  0.5642 -0.2305
  614SOL    HW1 2020   5.099   5.882   8.488 -0.5425  0.5720 -0.1551
  614SOL    HW2 2021   5.040   5.814   8.352 -0.1917  0.0607 -0.0573
  615SOL     OW 2022   1.307   7.058   7.415  0.8564 -0.5792 -0.3980
  615SOL    HW1 2023   1.351   7.086   7.500 -1.0843  5.0027 -0.8350
  615SOL    HW2 2024   1.217   7.019   7.435  0.9926 -0.6159  0.1528
  616SOL     OW 2025   4.221   5.239   3.364  0.8772  0.7041  0.4636
  616SOL    HW1 2026   4.192   5.156   3.315  3.4592  1.4174 -2.6156
  616SOL    HW2 2027   4.147   5.269   3.424 -0.6224 -3.0997  0.8360
  617SOL     OW 2028   4.316   2.653   3.625 -0.9017  0.4585  0.1663
  617SOL    HW1 2029   4.315   2.696   3.715  0.3674  0.3007  0.2694
  617SOL    HW2 2030   4.247   2.696   3.567 -1.1337  1.1517  0.9357
  618SOL     OW 2031   1.274   8.083   8.320 -0.1270  0.2650 -0.6261
  618SOL    HW1 2032   1.192   8.127   8.356 -0.6630 -0.8225 -0.4581
  618SOL    HW2 2033   1.351   8.145   8.327 -0.3955  0.4222  1.6116
  619SOL     OW 2034   7.203   0.847   7.958  0.4808  0.0712 -0.1208
  619SOL    HW1 2035   7.268   0.899   8.013  1.1739 -0.4419 -0.4457
  619SOL    HW2 2036   7.141   0.910   7.911  0.2177  0.5287  0.8278
  620SOL     OW 2037   5.948   7.665   3.249  0.2303  0.2973 -0.3485
  620SOL    HW1 2038   5.964   7.644   3.153  1.9894  2.0758 -0.5043
  620SOL    HW2 2039   5.947   7.580   3.302 -1.6370 -0.8015 -1.9853
  621SOL     OW 2040   5.016   6.029   3.929 -1.1237 -0.0284  0.0806
  621SOL    HW1 2041   4.997   6.046   3.832  0.6695  1.4674 -0.0557
  621SOL    HW2 2042   5.040   6.115   3.974  0.3242 -1.0322  1.3291
  622SOL     OW 2043   7.306   0.269   2.852  0.4765  0.5127  0.0700
  622SOL    HW1 2044   7.306   0.348   2.914 -0.9645  0.1620  0.5663
  622SOL    HW2 2045   7.371   0.201   2.885  1.2929  1.2317 -0.0290
  623SOL     OW 2046   2.162   4.533   0.686  0.3208  0.1756  0.5031
  623SOL    HW1 2047   2.162   4.534   0.586  1.9366 -1.3942  0.4342
  623SOL    HW2 2048   2.173   4.438   0.717 -1.3835  0.4847  2.2043
  624SOL     OW 2049   7.021   3.066   1.229 -0.0370  0.4030  0.0529
  624SOL    HW1 2050   6.931   3.055   1.186  0.2248  1.2204 -0.7168
  624SOL    HW2 2051   7.083   2.996   1.195 -0.3320 -0.0858  0.4906
  625SOL     OW 2052   3.047   4.895   1.794  0.1212 -0.2874  0.5398
  625SOL    HW1 2053   2.984   4.911   1.870 -0.8981 -0.4768 -0.2477
  625SOL    HW2 2054   2.999   4.850   1.719  0.5465  1.8069 -1.0822
  626SOL     OW 2055   4.933   6.786   1.926 -0.1874  0.0954  0.4291
  626SOL    HW1 2056   4.978   6.838   1.998 -0.4706  1.1193 -0.1155
  626SOL    HW2 2057   4.896   6.849   1.858 -0.1039 -0.8450 -0.5055
  627SOL     OW 2058   4.618   6.109   3.923  0.3228 -0.0624  0.2028
  627SOL    HW1 2059   4.629   6.107   3.824  2.4180 -0.7866  0.4088
  627SOL    HW2 2060   4.682   6.174   3.963  0.4399 -0.7504  1.1727
  628SOL     OW 2061   5.147   0.329   3.016 -0.3036 -0.6529 -0.2899
  628SOL    HW1 2062   5.198   0.413   3.039 -0.2094 -0.8979  0.4252
  628SOL    HW2 2063   5.099   0.296   3.097  1.1343 -2.3153 -0.0641
  629SOL     OW 2064   5.990   4.925   2.873  0.0046 -0.1690 -0.7874
  629SOL    HW1 2065   5.938   4.873   2.805 -2.3752  0.8926  0.1242
  629SOL    HW2 2066   5.973   4.887   2.964  0.5722  0.4213 -0.4303
  630SOL     OW 2067   2.947   0.538   4.926  0.2434  0.2832 -0.0739
  630SOL    HW1 2068   3.012   0.497   4.863 -0.1628 -1.2499  0.4430
  630SOL    HW2 2069   2.996   0.593   4.994  1.0371 -0.8475  0.3110
  631SOL     OW 2070   1.751   5.231   8.691 -0.1458 -0.0994  0.5140
  631SOL    HW1 2071   1.725   5.326   8.676  1.7533  0.4785  0.6991
  631SOL    HW2 2072   1.774   5.217   8.787 -0.4011 -0.7521  0.4894
  632SOL     OW 2073   0.812   3.175   5.265  0.1044 -0.0520  0.1132
  632SOL    HW1 2074   0.745   3.168   5.339  0.2573  0.7044  0.3332
  632SOL    HW2 2075   0.767   3.206   5.181  0.2201  0.7727  0.3442
  633SOL     OW 2076   2.984   6.175   4.244 -0.3676  0.3435 -0.4606
  633SOL    HW1 2077   3.067   6.183   4.188 -0.3201 -0.1604 -0.4641
  633SOL    HW2 2078   3.009   6.185   4.340 -0.2333 -0.2711 -0.4299
  634SOL     OW 2079   6.906   6.831   1.837  0.1486 -0.2393 -0.4076
  634SOL    HW1 2080   6.949   6.921   1.829  0.0337  0.1044  1.9568
  634SOL    HW2 2081   6.818   6.840   1.883 -0.9533 -1.3330 -2.2160
  635SOL     OW 2082   6.262   3.972   5.768 -0.0112 -0.3740 -0.1106
  635SOL    HW1 2083   6.322   3.998   5.843  1.3576 -0.1255 -1.2410
  635SOL    HW2 2084   6.177   4.025   5.772 -0.1204 -0.6328  1.4366
  636SOL     OW 2085   3.835   5.390   4.988 -0.3578 -0.0492  0.1440
  636SOL    HW1 2086   3.794   5.471   4.947  0.8459  0.4028 -0.2054
  636SOL    HW2 2087   3.803   5.381   5.083 -2.4892 -0.6253 -0.5741
  637SOL     OW 2088   1.134   8.588   3.801  0.6049 -0.0252  0.0669
  637SOL    HW1 2089   1.044   8.591   3.756  0.5346  0.0889  0.2150
  637SOL    HW2 2090   1.202   8.553   3.736  0.1338 -1.7872  0.4761
  638SOL     OW 2091   4.821   2.485   0.483  0.5225  0.1324  0.6715
  638SOL    HW1 2092   4.903   2.467   0.430  1.1498  0.7259  1.4279
  638SOL    HW2 2093   4.813   2.583   0.501 -0.3367  0.0781  0.6325
  639SOL     OW 2094   2.877   5.750   1.817 -0.9954  0.0362 -0.0731
  639SOL    HW1 2095   2.900   5.791   1.728 -0.7350  0.6943  0.2948
  639SOL    HW2 2096   2.943   5.781   1.886 -2.6304  1.5275  0.8948
  640SOL     OW 2097   1.830   4.343   1.330  0.1291 -0.5781  0.0269
  640SOL    HW1 2098   1.857   4.271   1.393 -2.2533 -1.2731  0.3342
  640SOL    HW2 2099   1.824   4.306   1.237 -0.5344 -0.6373  0.0913
  641SOL     OW 2100   4.691   7.314   5.753  0.0450  0.2103  0.4848
  641SOL    HW1 2101   4.696   7.391   5.689  1.5691 -0.0764  0.2371
  641SOL    HW2 2102   4.659   7.348   5.842 -1.4508  0.7216 -0.2153
  642SOL     OW 2103   6.408   8.771   4.960  0.4561 -0.0459  0.1421
  642SOL    HW1 2104   6.349   8.797   5.036  1.4008  0.8874  0.5793
  642SOL    HW2 2105   6.480   8.710   4.993  2.5668  2.5164  0.7026
  643SOL     OW 2106   4.126   0.763   5.209 -0.6865 -0.0058  0.0109
  643SOL    HW1 2107   4.051   0.804   5.260  0.6869  0.7971  1.4822
  643SOL    HW2 2108   4.106   0.667   5.191 -0.9606 -0.5216  2.7072
  644SOL     OW 2109   3.482   2.282   8.288 -0.3439 -0.0669 -0.0656
  644SOL    HW1 2110   3.512   2.256   8.380  1.0109  0.2004 -0.4008
  644SOL    HW2 2111   3.449   2.202   8.239  2.5481 -1.0447 -0.6406
  645SOL     OW 2112   7.321   0.543   8.844 -0.1830  0.6034 -0.3151
  645SOL    HW1 2113   7.233   0.539   8.890 -0.4702  0.3134 -0.8868
  645SOL    HW2 2114   7.374   0.620   8.880  0.1733 -0.4543  1.5062
  646SOL     OW 2115   8.092   6.462   7.457  0.3718  0.3231 -0.3242
  646SOL    HW1 2116   8.050   6.376   7.487  0.8489 -0.2096 -1.1705
  646SOL    HW2 2117   8.167   6.485   7.519  0.0181  0.3197  0.1122
  647SOL     OW 2118   8.770   1.313   8.482 -0.2042 -0.9014  0.0497
  647SOL    HW1 2119   8.731   1.236   8.532  1.2703 -0.6422  1.6886
  647SOL    HW2 2120   8.734   1.314   8.389 -1.3630 -2.6936  0.4337
  648SOL     OW 2121   5.602   2.400   4.071  0.0332  0.2628 -0.2504
  648SOL    HW1 2122   5.520   2.455   4.086 -0.3605 -0.5703  0.8244
  648SOL    HW2 2123   5.580   2.303   4.082  0.3660 -0.3170 -3.6271
  649SOL     OW 2124   1.377   6.483   5.153 -0.0170  0.7692  0.0975
  649SOL    HW1 2125   1.326   6.416   5.099 -0.0586 -0.0795  1.1652
  649SOL    HW2 2126   1.319   6.520   5.225  0.2827  1.3024  0.0774
  650SOL     OW 2127   3.329   6.267   5.036  0.7142 -0.3509  0.0142
  650SOL    HW1 2128   3.369   6.178   5.058  1.3453 -0.5971 -1.9390
  650SOL    HW2 2129   3.255   6.255   4.970 -2.4302  0.1425  3.1742
  651SOL     OW 2130   3.930   3.846   5.990 -0.2379  0.5073 -0.7415
  651SOL    HW1 2131   3.895   3.800   6.071 -1.8086  1.4416 -0.8479
  651SOL    HW2 2132   3.998   3.788   5.944 -1.2581 -1.1432 -0.2076
  652SOL     OW 2133   8.151   1.338   4.826 -0.2035 -0.3318 -0.6137
  652SOL    HW1 2134   8.098   1.253   4.823  1.1261 -1.1672 -1.0430
  652SOL    HW2 2135   8.191   1.350   4.917 -1.0200  0.2544 -0.3164
  653SOL     OW 2136   0.175   1.850   3.295  0.2798 -0.0324  0.0240
  653SOL    HW1 2137   0.246   1.914   3.326 -1.0385  1.7455 -0.4193
  653SOL    HW2 2138   0.214   1.759   3.284  2.5141  0.9012 -0.3061
  654SOL     OW 2139   5.365   1.541   7.308 -0.0340 -0.4873  0.2623
  654SOL    HW1 2140   5.410   1.625   7.335 -0.3711  0.4473 -1.8968
  654SOL    HW2 2141   5.266   1.552   7.315 -0.0607 -1.1440  1.1195
  655SOL     OW 2142   5.653   3.437   4.221  0.4431  0.4768  0.7061
  655SOL    HW1 2143   5.561   3.411   4.191  0.9201  0.9554 -1.3578
  655SOL    HW2 2144   5.646   3.498   4.299 -1.1998  2.7638 -1.0628
  656SOL     OW 2145   4.352   3.694   4.916  0.2665 -0.7143  0.2833
  656SOL    HW1 2146   4.269   3.723   4.870  0.0157  1.9535  2.2235
  656SOL    HW2 2147   4.423   3.763   4.905  1.3455 -1.6738  0.9406
  657SOL     OW 2148   4.007   5.126   0.130 -0.2468 -0.1470 -0.3118
  657SOL    HW1 2149   4.063   5.135   0.212 -2.1999  1.2427  0.9759
  657SOL    HW2 2150   4.015   5.033   0.093  2.5551 -0.0970 -0.0364
  658SOL     OW 2151   3.057   1.634   4.144  0.1003 -0.1201 -0.4705
  658SOL    HW1 2152   3.126   1.668   4.082  0.0204  2.8705  0.9181
  658SOL    HW2 2153   3.101   1.593   4.224  0.4037  2.4302  0.7558
  659SOL     OW 2154   6.166   7.282   2.670  0.1172  0.1198  0.4827
  659SOL    HW1 2155   6.218   7.229   2.603 -0.0498 -0.9602  1.1976
  659SOL    HW2 2156   6.228   7.343   2.719  0.3171  0.5728 -0.2986
  660SOL     OW 2157   6.967   3.557   8.546  0.4811  0.4788 -0.1703
  660SOL    HW1 2158   6.965   3.630   8.614  1.8185 -0.9618  1.5076
  660SOL    HW2 2159   7.060   3.523   8.535 -0.3323 -2.3107  0.6509
  661SOL     OW 2160   0.161   4.653   0.543  0.2113 -0.0988 -0.1081
  661SOL    HW1 2161   0.139   4.751   0.538  0.7978 -0.0217 -1.8796
  661SOL    HW2 2162   0.250   4.641   0.589 -0.1367  0.1365  0.6449
  662SOL     OW 2163   5.905   3.069   3.733 -0.4375 -0.4400  0.1345
  662SOL    HW1 2164   5.918   3.086   3.831  2.4638  0.7351 -0.3702
  662SOL    HW2 2165   5.882   2.973   3.719  0.7235 -1.0188  1.8820
  663SOL     OW 2166   5.978   0.961   2.968  0.3117  0.0527  0.4808
  663SOL    HW1 2167   5.967   0.924   3.061 -0.0507  1.8745  1.2050
  663SOL    HW2 2168   5.911   1.033   2.953  1.0213  0.4625 -0.8527
  664SOL     OW 2169   6.692   7.811   2.747  0.2249 -0.5212 -0.6711
  664SOL    HW1 2170   6.641   7.805   2.833 -0.8922  0.3623 -1.2425
  664SOL    HW2 2171   6.741   7.726   2.731  0.0793 -0.8687  0.6042
  665SOL     OW 2172   2.038   8.757   0.093  0.3441  0.0640  0.3354
  665SOL    HW1 2173   1.984   8.759   0.178 -0.9812  0.5132 -0.4776
  665SOL    HW2 2174   1.976   8.760   0.015  1.5632  0.0982 -0.6585
  666SOL     OW 2175   6.514   5.122   2.611  0.4134  0.2471 -0.3862
  666SOL    HW1 2176   6.527   5.221   2.598 -1.1168  0.3150 -1.9794
  666SOL    HW2 2177   6.416   5.104   2.625  0.8540 -0.9341  1.3231
  667SOL     OW 2178   4.614   2.936   4.750 -0.4957  0.0058  0.0036
  667SOL    HW1 2179   4.514   2.940   4.738 -0.4367  0.4019 -0.3346
  667SOL    HW2 2180   4.639   2.983   4.834 -0.5351  0.4078 -0.2100
  668SOL     OW 2181   3.398   5.026   2.860  0.6085 -0.5778 -0.1943
  668SOL    HW1 2182   3.407   5.086   2.939 -1.2515  0.8969 -1.0232
  668SOL    HW2 2183   3.469   5.047   2.793 -0.4923  1.3329 -0.8259
  669SOL     OW 2184   7.012   5.942   1.366 -0.3321  0.2459  0.6077
  669SOL    HW1 2185   6.933   5.993   1.331  0.5527  1.2889  0.0929
  669SOL    HW2 2186   7.086   5.945   1.299  0.9053  1.0897  1.9758
  670SOL     OW 2187   2.460   4.269   1.035  0.1261 -0.2933 -0.0559
  670SOL    HW1 2188   2.512   4.199   1.083  0.8690  0.2616 -0.0265
  670SOL    HW2 2189   2.455   4.351   1.092 -3.7816 -1.4015  1.5139
  671SOL     OW 2190   0.424   5.531   6.426  0.2590  0.5194 -0.4674
  671SOL    HW1 2191   0.340   5.582   6.409 -0.6121 -0.3581  0.9189
  671SOL    HW2 2192   0.400   5.439   6.458  1.7614  0.0409 -0.6568
  672SOL     OW 2193   0.130   0.709   6.589 -0.5015 -0.1553 -0.0254
  672SOL    HW1 2194   0.221   0.696   6.547 -0.8013  0.6534 -0.9534
  672SOL    HW2 2195   0.097   0.801   6.569 -0.4736  0.4512  2.4292
  673SOL     OW 2196   2.892   4.034   3.676 -0.0749 -0.0214 -0.2011
  673SOL    HW1 2197   2.941   3.947   3.678  0.0381  0.0472  0.6732
  673SOL    HW2 2198   2.824   4.033   3.603  1.7187  0.1616 -1.9692
  674SOL     OW 2199   0.804   8.505   0.954 -0.1795 -0.0945  0.2825
  674SOL    HW1 2200   0.839   8.485   1.046  1.1983 -0.2622 -0.2514
  674SOL    HW2 2201   0.712   8.542   0.961 -0.5608 -1.2142  1.6544
  675SOL     OW 2202   2.237   0.135   8.740  0.0490 -0.2775 -0.5087
  675SOL    HW1 2203   2.282   0.177   8.819 -0.2019  0.3700 -0.7037
  675SOL    HW2 2204   2.217   0.039   8.760 -1.4261  0.2605  0.8188
  676SOL     OW 2205   7.409   0.649   8.376 -0.9310  0.3281 -0.4754
  676SOL    HW1 2206   7.459   0.572   8.335  0.2240 -0.1847  1.7561
  676SOL    HW2 2207   7.469   0.729   8.379 -1.5256  0.8141 -1.1280
  677SOL     OW 2208   3.667   3.648   4.528  0.9175 -0.2182  0.4457
  677SOL    HW1 2209   3.586   3.629   4.472  1.4761  0.0935 -0.4942
  677SOL    HW2 2210   3.737   3.691   4.471  1.8464 -0.7188  1.1818
  678SOL     OW 2211   0.806   3.310   5.608 -0.0167  0.1215  0.1298
  678SOL    HW1 2212   0.728   3.325   5.669  1.2011  0.3230  1.7252
  678SOL    HW2 2213   0.882   3.370   5.635  1.5516 -1.8019  0.2769
  679SOL     OW 2214   7.447   7.516   5.808 -0.3733  0.4429  0.2344
  679SOL    HW1 2215   7.486   7.605   5.787  0.1200 -0.2304 -1.9846
  679SOL    HW2 2216   7.370   7.498   5.747 -1.2808 -0.1438  1.5123
  680SOL     OW 2217   5.047   1.526   1.601 -0.0921  0.0187 -0.4161
  680SOL    HW1 2218   5.140   1.513   1.634 -1.1236 -5.1056  1.2777
  680SOL    HW2 2219   5.042   1.504   1.503  0.2792 -1.2189 -0.1675
  681SOL     OW 2220   2.283   6.544   1.283 -0.1980 -0.2813  0.0915
  681SOL    HW1 2221   2.226   6.616   1.242  0.0111 -0.4132 -0.4367
  681SOL    HW2 2222   2.263   6.457   1.239 -0.9822 -0.6985  1.2349
  682SOL     OW 2223   4.728   8.095   2.648  0.1361  0.5432 -0.0150
  682SOL    HW1 2224   4.775   8.123   2.732  0.4452 -1.2596  0.4775
  682SOL    HW2 2225   4.794   8.052   2.586 -0.2841  0.9282 -0.7335
  683SOL     OW 2226   5.162   8.390   0.852 -0.0630 -0.3399  0.2935
  683SOL    HW1 2227   5.159   8.359   0.947  0.7854 -0.2871  0.3506
  683SOL    HW2 2228   5.165   8.311   0.791 -1.9141 -0.3892  0.2351
  684SOL     OW 2229   2.232   8.250   5.777  0.1099  0.4873  0.5028
  684SOL    HW1 2230   2.193   8.174   5.725  1.7825 -1.5195  2.0164
  684SOL    HW2 2231   2.298   8.298   5.721 -0.0856  0.0638 -0.1038
  685SOL     OW 2232   5.786   2.188   5.114  0.4039 -0.0276  0.3120
  685SOL    HW1 2233   5.880   2.217   5.132  0.5754  0.0051 -0.5854
  685SOL    HW2 2234   5.749   2.242   5.038 -0.4767  0.2296  0.9067
  686SOL     OW 2235   7.279   5.345   2.928 -0.3932 -1.2575  0.0653
  686SOL    HW1 2236   7.334   5.270   2.891  1.3509 -0.4479  0.9143
  686SOL    HW2 2237   7.295   5.428   2.874  1.2920 -0.3589  1.8073
  687SOL     OW 2238   5.688   8.111   0.137  0.1737 -0.5823 -0.0909
  687SOL    HW1 2239   5.756   8.183   0.144 -0.6333  0.3750 -1.5929
  687SOL    HW2 2240   5.733   8.022   0.131  1.3195  0.0507 -1.2786
  688SOL     OW 2241   8.494   7.917   4.678 -0.2428  0.3619  0.4547
  688SOL    HW1 2242   8.554   7.969   4.617 -1.8725  1.2386 -0.4399
  688SOL    HW2 2243   8.464   7.833   4.632 -0.1749  0.2142  0.6777
  689SOL     OW 2244   3.991   2.820   5.362  0.3066  0.4242 -0.0682
  689SOL    HW1 2245   4.083   2.780   5.364 -0.2721 -1.0057 -0.4048
  689SOL    HW2 2246   3.937   2.782   5.436 -0.1236  0.9913 -0.0876
  690SOL     OW 2247   6.565   2.556   3.892 -0.1894  0.6190 -0.3452
  690SOL    HW1 2248   6.467   2.568   3.907  0.2275  1.1508  2.8729
  690SOL    HW2 2249   6.583   2.464   3.858 -1.7158 -0.0814  0.6492
  691SOL     OW 2250   0.878   1.968   1.869 -0.3564 -0.0639 -0.3401
  691SOL    HW1 2251   0.927   2.055   1.866 -1.4819  0.5962 -0.0921
  691SOL    HW2 2252   0.940   1.896   1.902  0.8946  0.4056 -1.5912
  692SOL     OW 2253   0.435   7.603   4.776  0.0110 -0.0855  0.6916
  692SOL    HW1 2254   0.492   7.636   4.851  0.4250 -0.1543  0.4165
  692SOL    HW2 2255   0.456   7.507   4.758  0.4675  0.1301  0.0053
  693SOL     OW 2256   6.277   6.684   4.380  0.6920 -0.4291  0.1298
  693SOL    HW1 2257   6.210   6.673   4.307  0.3711 -2.8583  0.7095
  693SOL    HW2 2258   6.230   6.697   4.467  1.0462  0.3150  0.2238
  694SOL     OW 2259   0.258   5.125   4.225 -0.3473 -0.1764  0.2781
  694SOL    HW1 2260   0.253   5.036   4.180 -1.7173 -0.4455  0.9360
  694SOL    HW2 2261   0.280   5.195   4.157 -3.1478 -0.4489 -1.0213
  695SOL     OW 2262   4.578   3.083   4.316  0.1773  0.2294 -0.3179
  695SOL    HW1 2263   4.531   3.119   4.396 -1.3196  0.8049 -1.4108
  695SOL    HW2 2264   4.530   3.112   4.233  0.1827 -2.4566 -1.3559
  696SOL     OW 2265   1.278   0.208   6.291  0.5079 -1.0201 -0.0252
  696SOL    HW1 2266   1.312   0.229   6.383 -1.0799  0.2876  0.3009
  696SOL    HW2 2267   1.190   0.162   6.299  0.4879 -1.1389 -0.9091
  697SOL     OW 2268   4.843   1.284   8.375 -0.1067  0.4949 -0.1936
  697SOL    HW1 2269   4.838   1.348   8.299  0.7594  1.3194  0.4170
  697SOL    HW2 2270   4.838   1.190   8.341  3.0073  0.7208 -1.5836
  698SOL     OW 2271   8.341   2.344   8.390  0.3541  0.1947 -0.4972
  698SOL    HW1 2272   8.262   2.293   8.423  0.5316  0.0749 -0.2571
  698SOL    HW2 2273   8.311   2.432   8.355  0.0042 -0.1997 -1.2121
  699SOL     OW 2274   3.127   6.915   3.865  0.0924 -0.4587 -0.1470
  699SOL    HW1 2275   3.162   6.942   3.775 -0.8952 -1.3169 -0.8209
  699SOL    HW2 2276   3.097   6.820   3.861 -1.8705  0.0957  0.4988
  700SOL     OW 2277   2.028   7.111   3.966 -0.3222 -0.5261 -0.3213
  700SOL    HW1 2278   2.079   7.127   3.882  0.3711 -1.0207 -0.0023
  700SOL    HW2 2279   2.018   7.197   4.017  2.0521 -0.7647  0.6479
  701SOL     OW 2280   7.345   3.064   5.150  0.4133 -0.1804  0.5282
  701SOL    HW1 2281   7.405   3.107   5.218  0.5639 -0.5003  0.6049
  701SOL    HW2 2282   7.289   3.133   5.105  2.2163  0.4111 -0.9363
  702SOL     OW 2283   4.916   5.815   3.213 -0.1933  0.6029  0.4389
  702SOL    HW1 2284   4.878   5.844   3.125  0.4840 -0.4846 -0.2421
  702SOL    HW2 2285   4.896   5.718   3.227  3.7834 -0.5929 -0.8694
  703SOL     OW 2286   2.069   5.791   3.311  0.6818 -0.4240 -0.6605
  703SOL    HW1 2287   2.125   5.708   3.312  1.0815 -0.1529 -0.6656
  703SOL    HW2 2288   2.058   5.825   3.404 -1.7062 -1.9653 -0.2670
  704SOL     OW 2289   6.190   4.674   4.071  0.4225 -0.1180 -0.5074
  704SOL    HW1 2290   6.270   4.648   4.017  1.1730  0.3756  0.3414
  704SOL    HW2 2291   6.217   4.689   4.166 -0.4676  1.1824 -0.4315
  705SOL     OW 2292   4.434   1.559   5.785  0.3521  0.0625 -0.2224
  705SOL    HW1 2293   4.451   1.461   5.779  0.0674 -0.1172  1.4144
  705SOL    HW2 2294   4.457   1.602   5.698  2.2516 -1.1843 -0.3893
  706SOL     OW 2295   3.447   0.189   5.283 -0.4907 -0.2589  0.1273
  706SOL    HW1 2296   3.420   0.273   5.237 -2.0563 -0.2232  1.0622
  706SOL    HW2 2297   3.546   0.192   5.302  0.1805 -0.1371 -2.8326
  707SOL     OW 2298   4.983   4.315   7.023  0.3869 -0.1440 -0.7284
  707SOL    HW1 2299   4.887   4.339   7.007  0.5087  0.5443 -0.4811
  707SOL    HW2 2300   4.998   4.299   7.120  1.1258  2.7653 -0.2522
  708SOL     OW 2301   4.871   7.231   2.043  0.2067 -0.1780  0.3180
  708SOL    HW1 2302   4.897   7.157   2.105  1.4691  0.2304  0.3024
  708SOL    HW2 2303   4.804   7.290   2.088  0.9515 -0.0010  1.2314
  709SOL     OW 2304   2.436   3.902   5.850 -0.2115  0.1171  0.1604
  709SOL    HW1 2305   2.348   3.893   5.804 -0.5114  1.9196  0.3118
  709SOL    HW2 2306   2.431   3.974   5.918  1.2227 -0.1621  0.6013
  710SOL     OW 2307   7.931   1.144   4.303 -0.5948 -0.2660 -0.0630
  710SOL    HW1 2308   7.938   1.110   4.209  0.9043  0.5247 -0.2727
  710SOL    HW2 2309   7.857   1.211   4.309  0.2299  0.7837 -1.0730
  711SOL     OW 2310   4.782   3.371   8.155 -0.2722  0.8863  0.0354
  711SOL    HW1 2311   4.730   3.410   8.079 -0.3348 -0.6204 -0.7340
  711SOL    HW2 2312   4.735   3.289   8.188  0.5517  0.6703  0.7012
  712SOL     OW 2313   7.600   3.763   4.209  0.1243 -0.0821  0.1224
  712SOL    HW1 2314   7.529   3.801   4.149  1.3637  1.4444 -0.4435
  712SOL    HW2 2315   7.583   3.665   4.223 -0.7191 -0.2862 -1.9855
  713SOL     OW 2316   6.484   8.831   3.503  0.4565  0.2874 -0.0801
  713SOL    HW1 2317   6.505   8.923   3.534 -0.3340  0.4075  0.1373
  713SOL    HW2 2318   6.467   8.832   3.405 -2.0961  0.8940  0.2938
  714SOL     OW 2319   8.551   2.806   4.299  0.0588  0.4559 -0.4561
  714SOL    HW1 2320   8.473   2.775   4.353 -0.9914  1.5286 -1.3078
  714SOL    HW2 2321   8.602   2.727   4.265  0.4943 -0.2450  1.6891
  715SOL     OW 2322   7.441   8.635   0.700 -0.1424  0.1917 -0.0152
  715SOL    HW1 2323   7.446   8.716   0.758  0.0599  0.4271 -0.3590
  715SOL    HW2 2324   7.374   8.650   0.626 -0.1739  0.0104 -0.0251
  716SOL     OW 2325   2.617   3.582   6.783 -0.1128 -0.6378  0.1307
  716SOL    HW1 2326   2.525   3.619   6.793  0.0173 -0.0845 -0.5792
  716SOL    HW2 2327   2.645   3.589   6.687  0.0769 -2.2451  0.0535
  717SOL     OW 2328   6.297   2.011   4.025  0.0632  0.6239 -0.2321
  717SOL    HW1 2329   6.238   1.940   4.063  0.3525  0.5064  0.0009
  717SOL    HW2 2330   6.263   2.101   4.053 -0.3950  0.5864 -0.6593
  718SOL     OW 2331   8.085   3.916   2.276 -0.2051  0.3726 -0.2027
  718SOL    HW1 2332   8.090   3.994   2.213  0.4077  0.2200 -0.3494
  718SOL    HW2 2333   8.062   3.949   2.368 -0.7769  0.6325 -0.4323
  719SOL     OW 2334   3.633   7.994   4.858 -0.0030  0.2027  0.0325
  719SOL    HW1 2335   3.624   8.017   4.761 -1.7777  0.1920  0.1665
  719SOL    HW2 2336   3.726   7.961   4.876 -0.2120 -1.7531 -2.0681
  720SOL     OW 2337   3.895   6.221   4.936 -0.2057 -0.1137 -0.4742
  720SOL    HW1 2338   3.964   6.149   4.942 -0.0847 -0.0851 -1.3527
  720SOL    HW2 2339   3.804   6.179   4.926  0.0513 -0.1976 -3.0353
  721SOL     OW 2340   8.658   2.797   0.993  0.6359 -0.3038  0.8160
  721SOL    HW1 2341   8.593   2.733   1.032  0.1729 -1.3540 -1.4953
  721SOL    HW2 2342   8.740   2.748   0.963 -0.4573 -0.2921 -2.6565
  722SOL     OW 2343   1.913   1.528   6.867  0.2482  0.0998  0.0360
  722SOL    HW1 2344   1.826   1.514   6.818  0.4664 -0.0061 -0.3218
  722SOL    HW2 2345   1.982   1.562   6.803  0.4502  0.2572  0.3385
  723SOL     OW 2346   6.872   5.526   1.823 -0.2760 -0.3156 -0.6744
  723SOL    HW1 2347   6.927   5.496   1.901 -0.5112 -0.8972 -0.7286
  723SOL    HW2 2348   6.810   5.599   1.852  2.3201  2.2911 -1.1802
  724SOL     OW 2349   2.773   7.425   4.481  0.1004  0.4297 -0.4456
  724SOL    HW1 2350   2.856   7.415   4.426 -0.8496  0.2450 -1.8961
  724SOL    HW2 2351   2.775   7.358   4.556  1.2107  0.3679 -0.5090
  725SOL     OW 2352   4.647   6.812   0.091  0.7486  0.3201  0.4354
  725SOL    HW1 2353   4.638   6.769   0.181 -0.1522 -1.4240 -0.4500
  725SOL    HW2 2354   4.736   6.791   0.052  0.9128  0.5889  0.6599
  726SOL     OW 2355   0.405   5.751   2.572  0.1314  0.1690  0.0828
  726SOL    HW1 2356   0.398   5.833   2.628 -0.8120  0.0946  0.0925
  726SOL    HW2 2357   0.333   5.687   2.597 -0.5098  0.2545 -1.3987
  727SOL     OW 2358   6.311   8.552   8.118  0.2459 -0.6689  0.5003
  727SOL    HW1 2359   6.376   8.604   8.063  0.6385 -0.7962  0.8447
  727SOL    HW2 2360   6.336   8.558   8.215 -1.5841  1.2628  0.9427
  728SOL     OW 2361   2.774   5.544   2.062 -0.3409 -0.4454 -0.7810
  728SOL    HW1 2362   2.854   5.576   2.011  0.9299 -1.0882  0.7216
  728SOL    HW2 2363   2.700   5.525   1.998  1.0305 -0.8165 -2.3432
  729SOL     OW 2364   1.839   2.105   1.412  0.1951 -0.4308  0.3422
  729SOL    HW1 2365   1.779   2.153   1.347  1.0710  0.8079  0.4042
  729SOL    HW2 2366   1.830   2.006   1.400 -0.2201 -0.2322 -1.1481
  730SOL     OW 2367   4.696   5.095   6.975 -0.0149 -0.3510 -0.0078
  730SOL    HW1 2368   4.670   5.073   6.881 -0.5457 -2.1648  0.5231
  730SOL    HW2 2369   4.785   5.141   6.975  0.4416 -1.1715 -1.3513
  731SOL     OW 2370   2.012   7.996   2.142  0.5625 -0.0091  0.4954
  731SOL    HW1 2371   2.028   8.062   2.216 -0.4004  0.4163  0.3391
  731SOL    HW2 2372   2.100   7.958   2.111  1.0989  0.9217  0.8417
  732SOL     OW 2373   0.283   0.062   6.615 -0.2294  0.0743 -0.4959
  732SOL    HW1 2374   0.184   0.059   6.601 -0.1521 -0.8136 -0.9551
  732SOL    HW2 2375   0.304   0.029   6.708 -0.4566  1.8762  0.2350
  733SOL     OW 2376   1.102   1.039   1.634 -0.1435 -0.1366 -0.3608
  733SOL    HW1 2377   1.080   1.124   1.587  0.1690  0.7627  1.0533
  733SOL    HW2 2378   1.048   0.965   1.596 -0.1853  0.6215 -1.8419
  734SOL     OW 2379   2.743   1.718   8.168 -0.3370 -0.4259 -0.1689
  734SOL    HW1 2380   2.742   1.618   8.172 -0.0906 -0.3883  1.3475
  734SOL    HW2 2381   2.823   1.748   8.115 -1.0424 -1.0200 -1.6421
  735SOL     OW 2382   0.156   6.317   0.195 -0.0159 -0.5882  0.4150
  735SOL    HW1 2383   0.198   6.228   0.214  0.5306 -0.3243  0.4814
  735SOL    HW2 2384   0.111   6.352   0.277  0.1259 -0.6189  0.5066
  736SOL     OW 2385   0.346   0.382   4.974  0.3001  0.4599  0.4724
  736SOL    HW1 2386   0.358   0.289   5.008 -0.0567  0.3879  0.4048
  736SOL    HW2 2387   0.364   0.384   4.876  0.1249  0.4237  0.4389
  737SOL     OW 2388   2.522   8.646   0.783 -0.1615 -0.0183  0.1370
  737SOL    HW1 2389   2.425   8.671   0.776 -0.3452 -0.9462 -0.8154
  737SOL    HW2 2390   2.534   8.550   0.761  0.7245 -0.4667  2.3179
  738SOL     OW 2391   7.844   3.073   5.850  0.0544  0.1443  0.3168
  738SOL    HW1 2392   7.825   3.167   5.878 -0.3500 -0.2801  1.5157
  738SOL    HW2 2393   7.783   3.047   5.775 -0.8798  0.3424  0.9977
  739SOL     OW 2394   4.849   0.853   6.006  0.4322  0.0889  0.2832
  739SOL    HW1 2395   4.840   0.944   6.045 -1.2859 -0.1064  0.4029
  739SOL    HW2 2396   4.823   0.855   5.910  2.0705  0.0435 -0.1844
  740SOL     OW 2397   6.200   3.807   7.535 -0.0170 -0.0627 -0.7098
  740SOL    HW1 2398   6.154   3.741   7.595 -0.1738  0.4855 -0.2205
  740SOL    HW2 2399   6.159   3.897   7.546  2.0776  0.7903  0.8687
  741SOL     OW 2400   7.492   8.680   1.139  0.5626  0.3662  0.3921
  741SOL    HW1 2401   7.483   8.726   1.051 -0.2480  0.0369  0.2905
  741SOL    HW2 2402   7.481   8.747   1.213 -1.2661  0.2794  0.2545
  742SOL     OW 2403   5.970   0.735   4.641  0.6568 -0.0878  0.1219
  742SOL    HW1 2404   5.995   0.757   4.735  1.4448 -0.4054 -0.0063
  742SOL    HW2 2405   6.012   0.800   4.578  1.2593 -0.6870 -0.1053
  743SOL     OW 2406   2.812   2.675   6.771  0.1719  0.4876 -0.1079
  743SOL    HW1 2407   2.752   2.726   6.833  0.5497  0.5041  0.2451
  743SOL    HW2 2408   2.898   2.654   6.817  1.0966  1.8627 -1.1110
  744SOL     OW 2409   4.524   4.310   6.407  0.2053  0.2783 -0.2469
  744SOL    HW1 2410   4.523   4.298   6.506 -0.5844  1.0049 -0.1614
  744SOL    HW2 2411   4.572   4.395   6.384  1.2690 -0.3738 -0.5636
  745SOL     OW 2412   2.642   5.463   7.756  0.4732  0.5682  0.6187
  745SOL    HW1 2413   2.613   5.529   7.688 -0.7906  1.5911  2.0941
  745SOL    HW2 2414   2.733   5.487   7.790  1.3135 -0.2048 -0.9552
  746SOL     OW 2415   0.414   1.108   7.694  0.5559 -0.3779  0.0663
  746SOL    HW1 2416   0.377   1.110   7.602 -1.4554 -1.9392  0.7599
  746SOL    HW2 2417   0.428   1.202   7.727 -0.1389  0.2083 -1.2503
  747SOL     OW 2418   8.824   4.569   0.368 -0.1014  0.0748 -0.6517
  747SOL    HW1 2419   8.905   4.585   0.424  0.5058 -0.3291 -1.3953
  747SOL    HW2 2420   8.842   4.597   0.274 -0.7439 -0.2356 -0.8749
  748SOL     OW 2421   0.259   0.132   5.369 -0.1979 -0.1242  0.3742
  748SOL    HW1 2422   0.265   0.221   5.415  2.7556  0.1604 -0.3692
  748SOL    HW2 2423   0.238   0.061   5.435 -2.7476  1.0438  0.9756
  749SOL     OW 2424   7.776   8.071   2.588  0.1632 -0.0918  0.2566
  749SOL    HW1 2425   7.802   8.166   2.575  1.0243 -0.2138  0.9633
  749SOL    HW2 2426   7.725   8.061   2.673 -0.0708 -0.2319  0.1005
  750SOL     OW 2427   2.069   8.835   5.800  0.3561  0.2929 -0.4088
  750SOL    HW1 2428   2.138   8.785   5.747  0.7576 -2.2240  2.2395
  750SOL    HW2 2429   2.110   8.916   5.840  0.7602  0.7559 -1.6953
  751SOL     OW 2430   5.286   0.592   3.138  0.7028 -0.1718  0.6794
  751SOL    HW1 2431   5.237   0.586   3.225  1.5852  0.5371  1.2452
  751SOL    HW2 2432   5.369   0.648   3.150  1.7493 -1.4656 -0.2030
  752SOL     OW 2433   4.472   5.109   1.733 -0.4629  0.5062 -0.5888
  752SOL    HW1 2434   4.447   5.013   1.722 -0.9683  0.6992 -1.2222
  752SOL    HW2 2435   4.416   5.165   1.672 -0.5771  1.2624  0.1850
  753SOL     OW 2436   5.913   3.216   5.286  0.2802 -0.3955 -0.1070
  753SOL    HW1 2437   5.856   3.281   5.337  0.0374 -2.2615  2.1834
  753SOL    HW2 2438   5.854   3.147   5.243  0.6300 -0.1122 -1.0631
  754SOL     OW 2439   8.263   1.385   1.323 -0.3039  0.2501 -0.1437
  754SOL    HW1 2440   8.274   1.473   1.277  0.7192 -0.0362 -0.4586
  754SOL    HW2 2441   8.259   1.312   1.255  0.8462 -0.1400  0.1915
  755SOL     OW 2442   3.328   6.757   8.498  0.3389  0.2075  0.4649
  755SOL    HW1 2443   3.413   6.773   8.447 -0.1705  0.1963 -0.4226
  755SOL    HW2 2444   3.251   6.794   8.445 -0.3798 -1.2048  0.4830
  756SOL     OW 2445   0.660   4.341   7.039  0.9438 -0.6702 -0.0499
  756SOL    HW1 2446   0.666   4.384   7.129 -1.1413 -0.0829 -0.1197
  756SOL    HW2 2447   0.701   4.250   7.041  1.4656 -0.4178  1.3153
  757SOL     OW 2448   4.639   7.812   5.343  0.0165  0.0829 -0.1803
  757SOL    HW1 2449   4.660   7.829   5.439 -2.1074  2.8549 -0.0986
  757SOL    HW2 2450   4.681   7.883   5.287 -1.1388  0.1687 -0.9709
  758SOL     OW 2451   3.148   4.041   8.862  0.0740 -0.0163 -0.4756
  758SOL    HW1 2452   3.205   4.120   8.884 -0.0377  0.3318 -1.3911
  758SOL    HW2 2453   3.066   4.072   8.813 -0.4166 -0.6134 -0.0486
  759SOL     OW 2454   1.683   5.517   6.199  0.3607  0.0825 -0.1142
  759SOL    HW1 2455   1.685   5.418   6.215  3.8983  0.0577 -0.0370
  759SOL    HW2 2456   1.645   5.535   6.109  0.9366 -1.4494 -0.6960
  760SOL     OW 2457   0.120   4.626   8.759  0.0229  0.1776 -0.2904
  760SOL    HW1 2458   0.065   4.653   8.680 -0.6505 -0.2004  0.0382
  760SOL    HW2 2459   0.113   4.527   8.772 -0.1784  0.2872  0.4654
  761SOL     OW 2460   7.628   2.846   7.377 -0.3364 -0.4772  0.0141
  761SOL    HW1 2461   7.717   2.886   7.396 -0.0374  0.2972 -2.6383
  761SOL    HW2 2462   7.635   2.746   7.376  1.0593 -0.4222 -2.1634
  762SOL     OW 2463   3.242   3.873   3.580 -0.5377 -0.4801  0.0949
  762SOL    HW1 2464   3.332   3.913   3.595 -1.5886  1.9329  0.3620
  762SOL    HW2 2465   3.227   3.859   3.482 -0.2846  0.1573 -0.0366
  763SOL     OW 2466   5.654   2.966   0.025  0.1762 -0.2286 -0.0212
  763SOL    HW1 2467   5.697   3.051  -0.006  0.8065 -0.1596  1.0035
  763SOL    HW2 2468   5.607   2.923  -0.052 -0.3633  1.1649 -0.5118
  764SOL     OW 2469   2.191   6.647   4.262 -0.4693 -0.3596 -0.3373
  764SOL    HW1 2470   2.197   6.733   4.312 -1.1152  0.2594 -1.2722
  764SOL    HW2 2471   2.200   6.665   4.164  1.1110 -1.5756 -0.4499
  765SOL     OW 2472   7.676   2.446   8.221  0.4418 -0.1849  0.5494
  765SOL    HW1 2473   7.649   2.519   8.159 -1.1607 -0.4207  0.9357
  765SOL    HW2 2474   7.737   2.382   8.173 -0.1212  0.0653 -0.5284
  766SOL     OW 2475   3.721   6.896   0.364  0.4312 -0.3825  0.0868
  766SOL    HW1 2476   3.737   6.865   0.270 -1.0841  2.1505 -1.1038
  766SOL    HW2 2477   3.805   6.938   0.399 -0.0593  2.5461 -1.8489
  767SOL     OW 2478   6.165   6.282   2.567 -0.1190  0.0789 -0.2792
  767SOL    HW1 2479   6.256   6.241   2.572 -0.3861 -0.5877 -0.8067
  767SOL    HW2 2480   6.145   6.329   2.653  1.5114  1.9613 -0.8379
  768SOL     OW 2481   7.405   4.947   5.224 -0.3036 -0.3150  0.3666
  768SOL    HW1 2482   7.324   4.894   5.251 -0.7156 -0.4273 -1.0034
  768SOL    HW2 2483   7.481   4.927   5.286 -1.8429  1.3270  3.0077
  769SOL     OW 2484   5.251   2.835   7.096  0.4026 -0.4349  0.3003
  769SOL    HW1 2485   5.284   2.902   7.164  0.3091  0.7856 -0.8145
  769SOL    HW2 2486   5.168   2.870   7.053  0.4902 -1.1662 -0.4857
  770SOL     OW 2487   6.564   5.975   8.071  0.4427 -0.2609 -0.0633
  770SOL    HW1 2488   6.612   5.891   8.048  2.4034  0.3583  1.4424
  770SOL    HW2 2489   6.532   6.019   7.987  1.0682 -1.5412 -1.0084
  771SOL     OW 2490   5.133   4.932   3.337 -0.1442  0.2778  0.6114
  771SOL    HW1 2491   5.219   4.982   3.347 -0.9236  1.6383  0.6985
  771SOL    HW2 2492   5.142   4.867   3.261  1.0663  0.1557  0.8359
  772SOL     OW 2493   1.022   4.045   0.502 -0.5915 -0.3531 -0.2004
  772SOL    HW1 2494   1.115   4.081   0.508 -1.1705  1.0962  0.6730
  772SOL    HW2 2495   0.971   4.095   0.433 -1.0823 -0.2588  0.2228
  773SOL     OW 2496   2.002   3.828   5.544 -0.2579  0.3692 -0.3152
  773SOL    HW1 2497   1.909   3.866   5.542  0.0939  1.2237 -0.5551
  773SOL    HW2 2498   2.006   3.749   5.482 -0.6203  0.8170 -0.9153
  774SOL     OW 2499   6.537   4.869   3.515 -0.5509 -0.2307 -0.1058
  774SOL    HW1 2500   6.492   4.950   3.553 -0.3081 -0.0929 -0.1155
  774SOL    HW2 2501   6.469   4.796   3.504 -0.8121  0.0398 -0.2984
  775SOL     OW 2502   7.865   7.056   1.213 -0.2843  0.0562  0.4920
  775SOL    HW1 2503   7.781   7.017   1.249 -1.0822  1.5044  0.2847
  775SOL    HW2 2504   7.934   6.985   1.204 -1.7708 -1.3342 -0.2314
  776SOL     OW 2505   0.621   5.037   6.647 -0.0723 -0.6970  0.4620
  776SOL    HW1 2506   0.576   5.029   6.736 -1.1710 -0.0077 -0.0186
  776SOL    HW2 2507   0.577   5.108   6.593  1.6031  0.0057 -0.0499
  777SOL     OW 2508   1.512   1.596   5.867 -0.2395 -0.3919 -0.6068
  777SOL    HW1 2509   1.574   1.635   5.936 -0.8229 -0.6545  0.0753
  777SOL    HW2 2510   1.562   1.584   5.782  0.5344 -0.1695 -0.1991
  778SOL     OW 2511   0.601   4.862   0.122  0.0574  0.4137  0.0009
  778SOL    HW1 2512   0.507   4.840   0.095  0.3476 -0.7973 -0.0896
  778SOL    HW2 2513   0.611   4.961   0.128 -1.3242  0.5626  0.3655
  779SOL     OW 2514   5.535   0.413   4.127  0.2514 -0.1999 -0.0440
  779SOL    HW1 2515   5.467   0.340   4.117 -0.3980  0.3848  0.0449
  779SOL    HW2 2516   5.614   0.392   4.069 -0.4149 -0.4069 -0.9130
  780SOL     OW 2517   4.005   8.248   1.492 -0.0250 -0.5220 -0.1624
  780SOL    HW1 2518   4.091   8.291   1.518  0.4213  0.3147 -2.7074
  780SOL    HW2 2519   3.930   8.312   1.507  0.3318  0.2849 -1.6157
  781SOL     OW 2520   7.235   2.538   0.938 -0.1997  0.2025 -0.1240
  781SOL    HW1 2521   7.248   2.636   0.921  1.4559 -0.1362 -1.0437
  781SOL    HW2 2522   7.283   2.513   1.023  1.3568 -0.1892 -1.0739
  782SOL     OW 2523   5.856   1.535   1.451 -0.1656 -0.4704 -0.1302
  782SOL    HW1 2524   5.833   1.603   1.520  0.0412 -3.4140  3.1423
  782SOL    HW2 2525   5.955   1.533   1.438 -0.0501 -0.9004  0.7146
  783SOL     OW 2526   0.894   6.080   3.005 -0.0414 -0.2539 -0.2772
  783SOL    HW1 2527   0.865   6.150   2.940 -2.2057  0.0481  0.9010
  783SOL    HW2 2528   0.866   5.990   2.971 -1.1399 -0.0996  0.1610
  784SOL     OW 2529   4.032   3.248   1.622 -0.1207  0.0380 -0.1547
  784SOL    HW1 2530   4.056   3.287   1.533 -3.0344 -0.0146 -1.0805
  784SOL    HW2 2531   4.033   3.320   1.692  1.6512  0.1875 -0.2883
  785SOL     OW 2532   0.148   0.404   2.948  0.2549  0.0769 -0.4462
  785SOL    HW1 2533   0.248   0.395   2.950  0.3143  0.7577  0.8996
  785SOL    HW2 2534   0.107   0.318   2.918  1.2042 -0.7047  0.4166
  786SOL     OW 2535   0.296   5.603   3.613  0.0390 -0.1203  0.3212
  786SOL    HW1 2536   0.265   5.656   3.534  1.8569 -0.9949 -1.0414
  786SOL    HW2 2537   0.239   5.626   3.693 -0.0108  2.9763 -0.4720
  787SOL     OW 2538   1.619   2.737   3.849  0.2332  0.5118  0.2838
  787SOL    HW1 2539   1.638   2.667   3.918 -0.6272  1.4048  1.4706
  787SOL    HW2 2540   1.555   2.700   3.782  0.2985 -0.0511  0.5254
  788SOL     OW 2541   0.459   8.666   0.719  0.4144  0.1363  0.0941
  788SOL    HW1 2542   0.516   8.720   0.657 -0.0546  1.5099  0.8339
  788SOL    HW2 2543   0.450   8.573   0.683  1.0099  0.6151 -1.3523
  789SOL     OW 2544   4.774   1.119   3.537  0.0072  0.0196 -0.4654
  789SOL    HW1 2545   4.690   1.172   3.523  0.4694  0.7745 -0.4391
  789SOL    HW2 2546   4.799   1.073   3.452  0.1481  0.6725 -0.7875
  790SOL     OW 2547   5.595   6.865   4.569  0.4638 -0.0413 -0.2986
  790SOL    HW1 2548   5.605   6.772   4.603  0.2724 -0.3414 -1.0400
  790SOL    HW2 2549   5.621   6.930   4.641  3.6409 -0.6791 -0.7307
  791SOL     OW 2550   1.693   4.972   8.632  0.6032 -0.3204  0.3465
  791SOL    HW1 2551   1.729   5.062   8.655  0.7540 -0.1962 -0.3590
  791SOL    HW2 2552   1.765   4.904   8.638  0.5725 -0.3380  0.5262
  792SOL     OW 2553   0.553   0.621   8.301 -0.0608 -0.1348 -0.5241
  792SOL    HW1 2554   0.611   0.540   8.311 -0.5088 -0.8723 -3.1318
  792SOL    HW2 2555   0.475   0.614   8.364  1.8018  0.1754  1.9718
  793SOL     OW 2556   6.396   6.656   0.506 -0.1054  0.2748 -0.4917
  793SOL    HW1 2557   6.392   6.658   0.406  0.4868 -3.5987 -0.7748
  793SOL    HW2 2558   6.460   6.585   0.535 -1.7981 -0.1652  2.6188
  794SOL     OW 2559   8.296   2.811   8.643 -0.7700 -0.1347 -0.2799
  794SOL    HW1 2560   8.314   2.720   8.608 -1.0931 -1.1809  2.0752
  794SOL    HW2 2561   8.211   2.810   8.696  0.4110  0.8996  1.7694
  795SOL     OW 2562   3.565   0.359   1.083 -0.7010  0.0098 -0.1894
  795SOL    HW1 2563   3.527   0.313   1.163 -2.2533  0.0955 -0.8334
  795SOL    HW2 2564   3.661   0.381   1.099 -0.9132 -0.2078  1.5352
  796SOL     OW 2565   8.797   2.462   5.507 -0.0515 -0.0072  0.3968
  796SOL    HW1 2566   8.756   2.552   5.528  1.0765  1.0082 -1.4609
  796SOL    HW2 2567   8.748   2.422   5.430  2.1782  1.1533 -1.7585
  797SOL     OW 2568   7.595   5.358   8.059  0.3495 -0.3436 -0.5364
  797SOL    HW1 2569   7.602   5.336   8.156 -0.6779 -1.4477 -0.6828
  797SOL    HW2 2570   7.686   5.359   8.018  0.9769  1.8251  0.7494
  798SOL     OW 2571   2.250   1.075   8.091  0.8605  0.1470 -0.3057
  798SOL    HW1 2572   2.254   1.076   8.191 -0.9760  1.9095 -0.1905
  798SOL    HW2 2573   2.305   1.149   8.054 -2.1604  2.5808 -0.2842
  799SOL     OW 2574   3.091   4.630   8.222 -0.1215  0.4453 -0.2722
  799SOL    HW1 2575   3.015   4.575   8.187 -0.0315  1.3265 -1.9558
  799SOL    HW2 2576   3.164   4.634   8.154  2.6209 -2.4032  2.2458
  800SOL     OW 2577   5.844   3.662   6.064  0.0676  0.0212  0.1722
  800SOL    HW1 2578   5.942   3.639   6.060 -0.0425 -0.5387  0.5985
  800SOL    HW2 2579   5.833   3.751   6.107  0.3635 -0.1504  0.6151
  801SOL     OW 2580   3.801   1.558   8.750 -0.2100  0.1545 -0.4816
  801SOL    HW1 2581   3.892   1.550   8.710 -0.5729  1.7621 -1.7626
  801SOL    HW2 2582   3.740   1.491   8.706 -0.3505  1.1882 -1.9376
  802SOL     OW 2583   4.743   1.059   4.942  0.8279 -0.3364 -0.2631
  802SOL    HW1 2584   4.644   1.061   4.930  0.9913 -1.9451 -2.5200
  802SOL    HW2 2585   4.766   1.093   5.033 -1.6562  1.5830 -0.2167
  803SOL     OW 2586   7.132   6.315   7.258  0.5067  0.1892 -0.3367
  803SOL    HW1 2587   7.125   6.218   7.233 -0.0877  0.3927 -0.9986
  803SOL    HW2 2588   7.218   6.352   7.223  0.6345 -0.0395 -0.2706
  804SOL     OW 2589   2.734   2.414   4.443  0.3891  0.5104  0.6600
  804SOL    HW1 2590   2.753   2.423   4.540 -2.7747 -1.6621  1.6392
  804SOL    HW2 2591   2.637   2.393   4.429  0.9998 -0.7725 -2.8644
  805SOL     OW 2592   0.868   2.050   3.233 -0.1419  0.1067  0.1320
  805SOL    HW1 2593   0.772   2.025   3.247  0.3798 -2.1137  0.1524
  805SOL    HW2 2594   0.915   2.052   3.320  0.0249  0.2967  0.0377
  806SOL     OW 2595   4.664   4.571   5.020  0.2920 -0.1531  0.1398
  806SOL    HW1 2596   4.612   4.538   4.942  0.3378 -0.0342  0.0587
  806SOL    HW2 2597   4.676   4.670   5.012  0.2458 -0.1322  0.3278
  807SOL     OW 2598   6.997   7.842   6.938 -1.1520  0.0152 -0.1721
  807SOL    HW1 2599   7.010   7.920   6.998  1.0579 -0.8823  0.5880
  807SOL    HW2 2600   6.962   7.764   6.991  1.5723 -1.0300  0.2676
  808SOL     OW 2601   8.256   4.687   7.388 -0.4519 -0.0083 -0.5213
  808SOL    HW1 2602   8.181   4.709   7.325 -0.4327  0.0583 -0.5204
  808SOL    HW2 2603   8.309   4.769   7.407  0.6898 -0.3940 -1.8987
  809SOL     OW 2604   6.435   4.483   2.714  0.5606 -0.3268  0.1662
  809SOL    HW1 2605   6.475   4.547   2.649 -0.1825 -0.0430 -0.0205
  809SOL    HW2 2606   6.393   4.407   2.666  0.9997 -0.7002  0.3669
  810SOL     OW 2607   6.289   0.640   6.164 -0.4890  0.7437 -0.0585
  810SOL    HW1 2608   6.252   0.646   6.071 -0.3928  2.1134 -0.0335
  810SOL    HW2 2609   6.270   0.726   6.213  2.4304  1.4402  0.0596
  811SOL     OW 2610   3.191   6.387   3.673 -0.1872  0.4036  0.2819
  811SOL    HW1 2611   3.266   6.439   3.715  0.0815  1.0993 -1.0064
  811SOL    HW2 2612   3.222   6.349   3.586 -0.9382 -0.4481  0.3690
  812SOL     OW 2613   4.593   7.637   0.574 -0.4799  0.0302  0.3326
  812SOL    HW1 2614   4.648   7.678   0.502  2.5130 -2.1933  1.1783
  812SOL    HW2 2615   4.595   7.696   0.655  1.6082 -0.4500  0.6843
  813SOL     OW 2616   1.363   4.025   6.097  0.5256  0.0560 -0.1355
  813SOL    HW1 2617   1.281   3.967   6.092  0.4093  0.0246  1.5740
  813SOL    HW2 2618   1.436   3.983   6.043 -0.3675 -0.2646 -1.1329
  814SOL     OW 2619   8.619   8.138   1.496 -0.2870 -0.3503 -0.1435
  814SOL    HW1 2620   8.621   8.098   1.404 -0.0240  1.0392 -0.7761
  814SOL    HW2 2621   8.549   8.093   1.551 -2.0955  0.3345 -1.7914
  815SOL     OW 2622   5.551   6.866   5.253 -0.1383 -0.3205 -0.2451
  815SOL    HW1 2623   5.484   6.917   5.200 -0.2834 -0.5033 -0.2379
  815SOL    HW2 2624   5.506   6.822   5.330  0.1455  0.2816  0.2685
  816SOL     OW 2625   0.775   3.599   7.300  0.2009 -0.1738  0.5850
  816SOL    HW1 2626   0.688   3.583   7.252  0.7479  0.3358 -0.6109
  816SOL    HW2 2627   0.767   3.680   7.357 -0.4519 -0.7734  1.3739
  817SOL     OW 2628   8.494   5.203   6.380  0.1476  0.1614 -0.0841
  817SOL    HW1 2629   8.592   5.188   6.372  0.2909  0.3696  1.1081
  817SOL    HW2 2630   8.458   5.237   6.293  1.5081  2.0887  0.0493
  818SOL     OW 2631   2.770   5.987   8.765  0.4128  0.1245  0.8896
  818SOL    HW1 2632   2.816   5.909   8.722  0.6230  1.4383 -1.3890
  818SOL    HW2 2633   2.838   6.050   8.802  0.3822  0.6940  0.0076
  819SOL     OW 2634   5.529   8.751   4.493 -0.1662 -0.2801  0.5340
  819SOL    HW1 2635   5.496   8.696   4.416  1.2181  1.2110 -1.2346
  819SOL    HW2 2636   5.601   8.702   4.541 -0.0273 -0.6586 -0.0447
  820SOL     OW 2637   4.342   2.910   6.862  0.6823  0.2536 -0.2651
  820SOL    HW1 2638   4.287   2.858   6.928  1.2262  1.3623  1.1327
  820SOL    HW2 2639   4.412   2.851   6.822  0.2711 -0.4724  0.0779
  821SOL     OW 2640   4.809   5.389   4.506 -0.0883 -0.6687 -0.1621
  821SOL    HW1 2641   4.777   5.299   4.480  0.7455 -0.8576 -0.5737
  821SOL    HW2 2642   4.837   5.440   4.425  0.3659 -0.4040  0.1508
  822SOL     OW 2643   0.915   7.367   1.586  0.0786  0.2336  0.2082
  822SOL    HW1 2644   0.863   7.411   1.660  0.5728 -0.0040  0.7063
  822SOL    HW2 2645   0.924   7.269   1.605  0.8238  0.2957  0.2045
  823SOL     OW 2646   4.272   2.946   1.744  0.7155 -0.1799  0.8233
  823SOL    HW1 2647   4.320   3.012   1.686 -0.0933 -0.5913 -0.3625
  823SOL    HW2 2648   4.269   2.980   1.838 -0.4499  1.9101  0.0929
  824SOL     OW 2649   0.619   6.736   3.078 -0.2577 -0.5668  0.2335
  824SOL    HW1 2650   0.658   6.816   3.033 -0.0279 -1.2920 -0.8992
  824SOL    HW2 2651   0.650   6.732   3.173  1.3138 -0.3724 -0.2449
  825SOL     OW 2652   8.413   5.209   8.104  0.0179 -0.2574 -0.2239
  825SOL    HW1 2653   8.471   5.291   8.109  0.1015 -0.3955  3.1613
  825SOL    HW2 2654   8.437   5.157   8.022  1.8965  1.6980 -1.0219
  826SOL     OW 2655   2.417   7.308   4.701  0.0557  0.3217 -0.0576
  826SOL    HW1 2656   2.331   7.276   4.742 -0.4539  0.5204 -0.9635
  826SOL    HW2 2657   2.490   7.242   4.723 -0.1486  0.5114  1.3157
  827SOL     OW 2658   1.709   6.768   8.025 -0.0859  0.0961 -0.3637
  827SOL    HW1 2659   1.667   6.694   7.971  0.2730  1.1206 -2.1431
  827SOL    HW2 2660   1.688   6.856   7.981 -2.2481  1.3371  2.7967
  828SOL     OW 2661   2.540   0.450   6.679  0.1721 -0.6698  0.0018
  828SOL    HW1 2662   2.448   0.489   6.672 -0.0945 -0.8534  1.9955
  828SOL    HW2 2663   2.599   0.490   6.609 -0.5703  1.9205  0.7625
  829SOL     OW 2664   5.825   6.886   8.264  0.1038  0.7420 -0.0278
  829SOL    HW1 2665   5.853   6.807   8.319  0.7885  0.0739 -1.2830
  829SOL    HW2 2666   5.830   6.862   8.167 -1.0513  1.8989 -0.3945
  830SOL     OW 2667   8.447   1.885   1.873  0.1695  0.3358  0.0476
  830SOL    HW1 2668   8.416   1.969   1.918 -1.9774  0.2977 -1.2642
  830SOL    HW2 2669   8.532   1.903   1.824  0.6643  1.2580  1.1866
  831SOL     OW 2670   6.317   4.679   8.281 -0.1201  0.0887 -0.0139
  831SOL    HW1 2671   6.363   4.607   8.230 -1.2362 -1.6686  1.3436
  831SOL    HW2 2672   6.373   4.762   8.280  1.0885 -0.6978 -1.8169
  832SOL     OW 2673   5.908   7.853   5.864 -0.1985 -0.1393  0.1689
  832SOL    HW1 2674   5.939   7.929   5.807 -0.2152 -0.6671 -0.5521
  832SOL    HW2 2675   5.987   7.801   5.896 -0.2801 -1.6604 -1.9098
  833SOL     OW 2676   6.698   3.798   3.990 -0.6110 -0.4757  0.1653
  833SOL    HW1 2677   6.613   3.847   3.973 -1.0863 -1.6880 -1.1594
  833SOL    HW2 2678   6.679   3.715   4.043 -0.0693 -0.1582  0.8820
  834SOL     OW 2679   2.490   6.509   6.396 -0.4887 -0.0071 -0.4693
  834SOL    HW1 2680   2.526   6.477   6.308 -0.6409 -0.0826 -0.5049
  834SOL    HW2 2681   2.487   6.433   6.461  1.3084  0.4238  0.1683
  835SOL     OW 2682   0.216   6.612   4.321 -0.4644 -0.0314  0.0373
  835SOL    HW1 2683   0.181   6.519   4.312 -0.9302  0.0908  0.5305
  835SOL    HW2 2684   0.199   6.663   4.236  2.7704 -1.3317 -1.5873
  836SOL     OW 2685   2.525   8.833   2.871  0.4782 -0.9408 -0.0437
  836SOL    HW1 2686   2.434   8.834   2.830 -1.0065 -0.9321  2.9948
  836SOL    HW2 2687   2.573   8.918   2.849 -0.7908 -0.3391 -0.5784
  837SOL     OW 2688   5.844   6.106   1.316  0.3523 -0.0155 -0.3462
  837SOL    HW1 2689   5.763   6.072   1.362  0.8057 -1.0480 -0.2642
  837SOL    HW2 2690   5.922   6.102   1.378  0.4722  0.9688 -0.4218
  838SOL     OW 2691   2.559   5.878   6.608  0.0741  0.1387  0.3399
  838SOL    HW1 2692   2.631   5.811   6.624 -0.5041 -0.5316  0.1788
  838SOL    HW2 2693   2.594   5.969   6.629  0.9543 -0.1745  0.2983
  839SOL     OW 2694   0.130   3.402   6.964  0.0773  0.2258  0.1678
  839SOL    HW1 2695   0.048   3.356   6.928  2.0818 -1.3494 -2.9114
  839SOL    HW2 2696   0.122   3.501   6.950 -1.2463  0.0862 -0.1865
  840SOL     OW 2697   8.763   2.631   0.281 -0.2859 -0.0786  0.2960
  840SOL    HW1 2698   8.744   2.567   0.206 -1.3961 -1.2328  1.5122
  840SOL    HW2 2699   8.677   2.662   0.321  0.0917  3.6245 -1.3242
  841SOL     OW 2700   6.812   7.337   7.117  0.3284 -0.3743 -0.6652
  841SOL    HW1 2701   6.726   7.331   7.066 -0.4423 -0.3073  0.5799
  841SOL    HW2 2702   6.792   7.355   7.214  1.7276 -0.9757 -0.2416
  842SOL     OW 2703   8.695   4.452   1.415  0.2072 -0.3533 -0.5097
  842SOL    HW1 2704   8.642   4.502   1.483  0.4971  0.2648 -0.7337
  842SOL    HW2 2705   8.782   4.423   1.454 -0.9660 -2.9529  0.4519
  843SOL     OW 2706   1.528   5.550   1.408  0.4070  0.0885 -0.1785
  843SOL    HW1 2707   1.543   5.461   1.367 -0.0896 -1.1104  2.0489
  843SOL    HW2 2708   1.581   5.620   1.359  0.5363 -1.3394 -2.1761
  844SOL     OW 2709   6.288   2.813   0.350 -0.5667 -0.4385  0.3754
  844SOL    HW1 2710   6.311   2.716   0.339  1.2432  0.0871 -0.9608
  844SOL    HW2 2711   6.193   2.821   0.382 -0.5717 -2.6383  1.0824
  845SOL     OW 2712   3.523   2.604   2.860 -0.5187  0.2193  0.0602
  845SOL    HW1 2713   3.462   2.578   2.934  1.3667 -0.3320  1.4758
  845SOL    HW2 2714   3.537   2.703   2.861  2.1302 -0.0744  2.6774
  846SOL     OW 2715   2.148   7.795   8.154 -0.0426  0.4324  0.1521
  846SOL    HW1 2716   2.055   7.761   8.173  0.2546 -1.7888 -1.7982
  846SOL    HW2 2717   2.155   7.817   8.057  1.6813 -0.2879  0.0803
  847SOL     OW 2718   2.058   7.158   7.101  0.2626 -0.2977  0.1479
  847SOL    HW1 2719   1.988   7.150   7.030  0.7371 -1.0063 -0.2522
  847SOL    HW2 2720   2.122   7.231   7.076  0.5047 -0.6339 -0.2270
  848SOL     OW 2721   6.673   0.157   2.485  0.5834 -0.3192 -0.5239
  848SOL    HW1 2722   6.617   0.080   2.515  0.3159 -1.4524 -3.6091
  848SOL    HW2 2723   6.690   0.218   2.562 -2.9129 -1.1410  1.0784
  849SOL     OW 2724   2.740   5.428   0.609 -0.1493  0.2067 -0.8161
  849SOL    HW1 2725   2.794   5.377   0.542  0.8261  2.8637 -2.1573
  849SOL    HW2 2726   2.800   5.473   0.674 -1.0024 -0.3401  0.3922
  850SOL     OW 2727   5.608   3.875   2.866  0.4158  0.1073  0.3595
  850SOL    HW1 2728   5.588   3.777   2.869 -0.7134  0.2828 -0.7409
  850SOL    HW2 2729   5.622   3.903   2.771 -0.5201  1.2449  0.5505
  851SOL     OW 2730   7.148   5.776   0.432  0.1547  0.0291  0.5065
  851SOL    HW1 2731   7.110   5.716   0.503 -1.5003  1.3512  0.8024
  851SOL    HW2 2732   7.247   5.782   0.443  0.4156 -2.7568  0.3430
  852SOL     OW 2733   5.590   6.044   6.683 -0.1860 -0.2130 -0.1456
  852SOL    HW1 2734   5.671   6.011   6.730  0.0583 -1.6009 -1.4681
  852SOL    HW2 2735   5.538   6.104   6.744  1.1997 -0.2359  1.1186
  853SOL     OW 2736   7.301   7.217   0.512  0.2111 -0.1150 -0.1627
  853SOL    HW1 2737   7.219   7.205   0.455  0.9226 -3.9452 -0.6057
  853SOL    HW2 2738   7.273   7.246   0.604 -1.1509  3.5053 -1.5353
  854SOL     OW 2739   5.196   2.797   1.596 -0.0520 -0.1834 -0.4641
  854SOL    HW1 2740   5.148   2.807   1.684 -0.1885  1.7754 -0.7010
  854SOL    HW2 2741   5.291   2.824   1.607  0.0854 -0.5243 -0.7937
  855SOL     OW 2742   6.658   8.530   4.531  0.1019  0.3694 -0.1917
  855SOL    HW1 2743   6.699   8.514   4.441 -0.2420 -0.1026 -0.2685
  855SOL    HW2 2744   6.568   8.486   4.535  0.5334 -0.4709  0.7144
  856SOL     OW 2745   3.602   4.470   6.837  0.5436  0.3052  0.0842
  856SOL    HW1 2746   3.505   4.496   6.837  0.9077  1.7876  1.2242
  856SOL    HW2 2747   3.614   4.387   6.783 -0.8892  1.7349 -2.5982
  857SOL     OW 2748   3.428   5.363   5.115  0.1582  0.1510  0.3893
  857SOL    HW1 2749   3.425   5.289   5.183 -0.5856 -0.1784  0.0040
  857SOL    HW2 2750   3.358   5.431   5.136 -2.5442 -1.6871 -1.9748
  858SOL     OW 2751   4.578   7.959   0.628 -0.0367 -0.6912  0.1659
  858SOL    HW1 2752   4.547   7.903   0.705  0.6988  0.5986  1.4573
  858SOL    HW2 2753   4.625   8.040   0.663  0.4081 -0.1130 -1.6653
  859SOL     OW 2754   1.409   0.525   8.379 -0.2187 -0.4164  0.2190
  859SOL    HW1 2755   1.453   0.583   8.311 -0.0077  0.2043  0.8736
  859SOL    HW2 2756   1.344   0.579   8.433  0.2549 -0.6940  1.0898
  860SOL     OW 2757   7.825   0.760   4.329 -0.4459  0.5567 -0.4743
  860SOL    HW1 2758   7.888   0.714   4.266 -0.6787 -0.9744  0.3607
  860SOL    HW2 2759   7.877   0.818   4.391  0.0932 -0.1954 -0.2078
  861SOL     OW 2760   6.673   0.449   5.896 -0.5487  0.7309  0.1821
  861SOL    HW1 2761   6.710   0.503   5.820 -1.4830  1.0257 -0.0849
  861SOL    HW2 2762   6.743   0.389   5.932  0.3770  1.7519  0.1372
  862SOL     OW 2763   8.809   6.265   7.514  0.2908 -0.2802  0.4948
  862SOL    HW1 2764   8.826   6.229   7.606  0.6556  1.2762  1.0707
  862SOL    HW2 2765   8.845   6.358   7.508  0.6271 -0.5052 -1.3659
  863SOL     OW 2766   5.315   8.717   7.064 -0.0416 -0.2019  0.1585
  863SOL    HW1 2767   5.394   8.758   7.019  0.1851 -0.7587  0.0510
  863SOL    HW2 2768   5.329   8.619   7.075  0.1104 -0.0294  1.8261
  864SOL     OW 2769   4.273   4.055   1.208 -0.4178 -0.1675  0.5293
  864SOL    HW1 2770   4.242   4.093   1.121  0.5409 -1.2750 -0.3363
  864SOL    HW2 2771   4.367   4.083   1.225 -1.0695  1.2753  1.9884
  865SOL     OW 2772   3.043   1.212   2.287 -0.1892 -0.7484 -0.1431
  865SOL    HW1 2773   2.977   1.235   2.217  0.2566  0.3035 -0.2343
  865SOL    HW2 2774   3.135   1.241   2.258  0.1168 -1.0124  0.5273
  866SOL     OW 2775   6.754   4.830   3.363  0.1532  0.3332 -0.0638
  866SOL    HW1 2776   6.760   4.896   3.289  1.7351  0.1325 -0.1350
  866SOL    HW2 2777   6.667   4.843   3.411 -0.8547  0.5380 -1.8510
  867SOL     OW 2778   4.188   8.403   5.938  0.0169 -0.5156 -0.6648
  867SOL    HW1 2779   4.204   8.325   5.999 -1.6840 -2.4502 -2.5191
  867SOL    HW2 2780   4.115   8.460   5.976  0.0663 -0.7948 -0.1346
  868SOL     OW 2781   6.286   0.406   8.603  0.3531  0.2380 -0.6339
  868SOL    HW1 2782   6.268   0.317   8.560 -0.7715  0.1033  0.0650
  868SOL    HW2 2783   6.297   0.393   8.702  0.1997  0.8726 -0.5308
  869SOL     OW 2784   4.903   4.018   7.063 -0.0606  0.7441  0.6736
  869SOL    HW1 2785   4.922   4.096   7.003 -1.6758  0.8126  0.2208
  869SOL    HW2 2786   4.981   4.004   7.125  1.4250  1.0214 -1.0440
  870SOL     OW 2787   1.409   4.557   8.140 -0.1007 -0.0373  0.2278
  870SOL    HW1 2788   1.353   4.501   8.079 -1.1756  1.1034  0.1305
  870SOL    HW2 2789   1.480   4.602   8.087  1.4270 -2.0329  0.4576
  871SOL     OW 2790   6.031   6.204   3.700 -0.1166  0.1302 -0.0834
  871SOL    HW1 2791   6.090   6.270   3.746 -0.8111  1.5495 -1.1617
  871SOL    HW2 2792   5.948   6.189   3.754 -0.0980  0.3764  0.0139
  872SOL     OW 2793   0.008   7.620   8.664  0.1805  0.3793 -0.0424
  872SOL    HW1 2794  -0.090   7.605   8.675  0.3260 -0.1289  0.6244
  872SOL    HW2 2795   0.032   7.609   8.568 -0.2068 -0.8316 -0.0188
  873SOL     OW 2796   7.942   1.482   1.565 -0.0744  0.2263 -0.4550
  873SOL    HW1 2797   7.930   1.528   1.654 -0.5583  0.7586 -0.7830
  873SOL    HW2 2798   8.025   1.427   1.567  0.4301  0.9707  0.0198
  874SOL     OW 2799   8.618   5.713   8.419  0.1042  0.6955 -0.1547
  874SOL    HW1 2800   8.663   5.644   8.363 -0.7809  0.7923 -1.0172
  874SOL    HW2 2801   8.559   5.668   8.486 -0.8434  0.5882 -1.0303
  875SOL     OW 2802   7.577   5.329   3.961  0.3778  0.4901  0.3448
  875SOL    HW1 2803   7.480   5.348   3.974 -0.0202 -1.1151 -0.0641
  875SOL    HW2 2804   7.628   5.361   4.041 -0.5570  0.8948  0.7904
  876SOL     OW 2805   6.958   6.043   4.021  0.2249  0.2899 -0.8359
  876SOL    HW1 2806   6.891   5.988   3.971 -1.6547  0.9936  0.7848
  876SOL    HW2 2807   6.950   6.139   3.992 -0.3461  0.5766  0.2459
  877SOL     OW 2808   8.240   3.928   8.697  0.1846  0.0454 -0.1195
  877SOL    HW1 2809   8.199   3.998   8.639 -0.7385 -1.4464 -1.3490
  877SOL    HW2 2810   8.240   3.841   8.649  2.1384 -0.6488  1.0102
  878SOL     OW 2811   2.371   8.481   1.371  0.6763 -0.4625 -0.0973
  878SOL    HW1 2812   2.341   8.576   1.383  2.8878  0.5575 -1.8292
  878SOL    HW2 2813   2.426   8.474   1.288  0.0464 -3.4410 -0.3635
  879SOL     OW 2814   5.620   1.332   0.511  0.7646  0.1728  0.7559
  879SOL    HW1 2815   5.522   1.331   0.531  0.5446  0.1728 -0.3049
  879SOL    HW2 2816   5.652   1.239   0.494  1.0691  0.1087  1.6104
  880SOL     OW 2817   8.788   1.701   7.723  0.5867 -0.1708  0.5724
  880SOL    HW1 2818   8.708   1.722   7.667  0.4985  1.4722  1.2439
  880SOL    HW2 2819   8.804   1.603   7.724 -0.3856 -0.3704 -0.9723
  881SOL     OW 2820   8.048   3.923   6.524  0.0845  0.4662  0.4044
  881SOL    HW1 2821   7.966   3.958   6.569 -1.2910  0.5371 -2.0255
  881SOL    HW2 2822   8.068   3.978   6.444  1.0124 -1.0854 -0.4776
  882SOL     OW 2823   4.755   7.374   8.067 -0.6113 -0.0584  0.5222
  882SOL    HW1 2824   4.841   7.385   8.017  0.6368 -2.2576  2.0094
  882SOL    HW2 2825   4.760   7.426   8.153 -0.0490 -1.4482  1.3672
  883SOL     OW 2826   0.224   3.192   3.562  0.8555 -0.0233  0.3735
  883SOL    HW1 2827   0.182   3.214   3.475  0.6335 -0.7057  0.3002
  883SOL    HW2 2828   0.201   3.262   3.630 -0.1992 -0.2499  0.2710
  884SOL     OW 2829   5.979   4.608   8.665 -0.0511 -0.2233 -0.5251
  884SOL    HW1 2830   5.897   4.657   8.633 -0.1420 -1.1731 -1.8196
  884SOL    HW2 2831   6.041   4.593   8.588  0.3379 -1.4348  0.0005
  885SOL     OW 2832   4.328   6.547   4.334  0.3136  0.0833  0.2273
  885SOL    HW1 2833   4.401   6.489   4.372  0.2939  0.2233  0.4765
  885SOL    HW2 2834   4.239   6.505   4.354  0.3314 -0.2008 -0.2656
  886SOL     OW 2835   5.260   2.202   2.879 -0.3562  0.0449 -0.3431
  886SOL    HW1 2836   5.198   2.275   2.849 -0.4313  0.4712  0.7873
  886SOL    HW2 2837   5.266   2.203   2.979  0.1798 -1.0693 -0.3521
  887SOL     OW 2838   2.273   8.430   0.774 -0.3617 -0.4664 -0.2547
  887SOL    HW1 2839   2.318   8.343   0.794 -1.2335 -1.0420 -0.7256
  887SOL    HW2 2840   2.273   8.445   0.675 -2.1027 -0.9824 -0.3573
  888SOL     OW 2841   4.365   6.116   0.347 -0.2830 -0.2620 -0.1111
  888SOL    HW1 2842   4.373   6.169   0.262 -2.1572 -0.5625 -0.5187
  888SOL    HW2 2843   4.388   6.020   0.328 -1.2584 -0.4386 -0.4232
  889SOL     OW 2844   8.008   2.236   6.936  0.2206  0.2089 -0.4213
  889SOL    HW1 2845   7.961   2.206   6.852 -0.7314  0.9650 -0.1653
  889SOL    HW2 2846   7.957   2.203   7.016  0.7591  0.0697 -0.1310
  890SOL     OW 2847   0.970   5.642   6.741  0.0595 -0.3178  0.3337
  890SOL    HW1 2848   0.901   5.708   6.771 -0.3288 -0.4229 -0.3087
  890SOL    HW2 2849   1.028   5.685   6.672  0.7773 -0.1641  1.0215
  891SOL     OW 2850   0.324   5.685   5.453  0.3709 -0.1848 -0.0741
  891SOL    HW1 2851   0.377   5.767   5.432  1.6071 -0.7674  0.6421
  891SOL    HW2 2852   0.317   5.675   5.552 -1.2334 -0.0437 -0.1584
  892SOL     OW 2853   8.022   0.723   2.334 -0.0036  0.0152 -0.2866
  892SOL    HW1 2854   7.953   0.759   2.271 -0.2901  1.1008  0.6010
  892SOL    HW2 2855   8.103   0.781   2.332  0.7458 -1.0227 -1.0203
  893SOL     OW 2856   2.447   2.580   2.218 -0.0707  0.2207  0.2239
  893SOL    HW1 2857   2.515   2.583   2.291 -1.5737 -0.0161  1.7110
  893SOL    HW2 2858   2.439   2.486   2.184 -0.3704  0.0378  0.7835
  894SOL     OW 2859   1.563   7.298   1.257  0.1761  0.3247 -0.5482
  894SOL    HW1 2860   1.569   7.281   1.159 -0.8516 -0.8385 -0.4263
  894SOL    HW2 2861   1.469   7.284   1.288  0.4784  0.7224  0.6007
  895SOL     OW 2862   3.276   1.774   7.882 -0.5359  0.5669  0.0123
  895SOL    HW1 2863   3.244   1.733   7.796  0.3080 -0.6483  0.2466
  895SOL    HW2 2864   3.373   1.796   7.873 -0.8564  2.0937  0.0743
  896SOL     OW 2865   3.330   4.540   0.932  0.4510  0.1528  0.3680
  896SOL    HW1 2866   3.394   4.468   0.957 -1.3339 -1.2611  1.0851
  896SOL    HW2 2867   3.313   4.538   0.834 -0.6016 -1.3537  0.5434
  897SOL     OW 2868   5.387   5.003   7.503  1.0206 -0.0334  0.2527
  897SOL    HW1 2869   5.389   4.915   7.551 -2.5739 -0.2736  0.2402
  897SOL    HW2 2870   5.376   5.077   7.569 -0.3860 -0.0538  0.0797
  898SOL     OW 2871   2.303   2.018   6.676 -0.9032  0.2167 -0.4828
  898SOL    HW1 2872   2.319   2.061   6.764 -2.1556 -1.7797  0.8179
  898SOL    HW2 2873   2.375   1.951   6.658 -1.1986 -0.1053 -0.4770
  899SOL     OW 2874   0.059   1.735   7.196 -0.2484 -0.9071 -0.2705
  899SOL    HW1 2875   0.021   1.653   7.238  1.5117 -0.2579  2.8588
  899SOL    HW2 2876   0.149   1.713   7.157 -0.1230 -0.6221 -0.1403
  900SOL     OW 2877   0.154   4.863   0.300  0.7895 -0.1887 -0.0365
  900SOL    HW1 2878   0.126   4.793   0.234  0.9898 -0.2267 -0.0826
  900SOL    HW2 2879   0.129   4.953   0.265  0.9732 -0.2021 -0.2067
  901SOL     OW 2880   8.477   3.425   3.299  0.1439  0.3106 -0.0490
  901SOL    HW1 2881   8.523   3.450   3.214  1.0214  2.1867  0.9027
  901SOL    HW2 2882   8.527   3.350   3.342 -0.7693 -1.2086 -1.5126
  902SOL     OW 2883   1.457   1.485   0.799  0.2309 -0.1945 -0.1960
  902SOL    HW1 2884   1.542   1.537   0.791  0.0605 -0.0201 -0.9220
  902SOL    HW2 2885   1.479   1.387   0.804  0.4134 -0.3306 -2.5444
  903SOL     OW 2886   0.546   0.237   5.912  0.4557  0.0859 -0.2626
  903SOL    HW1 2887   0.639   0.235   5.877  1.0413 -1.5950  1.2169
  903SOL    HW2 2888   0.522   0.147   5.950 -1.5650  0.6407 -0.0830
  904SOL     OW 2889   4.649   6.307   8.847  0.0164  0.1401  0.2204
  904SOL    HW1 2890   4.680   6.329   8.940 -1.2843 -1.0787  0.9910
  904SOL    HW2 2891   4.652   6.208   8.834 -1.2477  0.1739 -0.4865
  905SOL     OW 2892   5.615   8.243   3.170  0.4610  0.0380  0.2535
  905SOL    HW1 2893   5.562   8.158   3.171  0.1756  0.2175  0.9476
  905SOL    HW2 2894   5.652   8.257   3.079 -0.9169  0.0405 -0.3372
  906SOL     OW 2895   6.430   5.743   2.279  0.2102 -0.0698  0.1517
  906SOL    HW1 2896   6.336   5.748   2.244  0.4491 -0.4599 -0.5718
  906SOL    HW2 2897   6.488   5.696   2.212  0.9294  0.1855  0.5846
  907SOL     OW 2898   4.114   7.708   0.980  0.0546 -0.7882  0.6531
  907SOL    HW1 2899   4.093   7.771   1.055  0.6197 -0.4359  0.5166
  907SOL    HW2 2900   4.044   7.636   0.977 -0.3752 -0.3970  1.0585
  908SOL     OW 2901   2.310   2.779   8.720 -0.1676  0.3457 -0.0962
  908SOL    HW1 2902   2.269   2.798   8.810 -0.0602  0.2320 -0.0234
  908SOL    HW2 2903   2.239   2.750   8.656 -0.2205  0.2824 -0.0078
  909SOL     OW 2904   4.330   2.726   3.170 -0.1143  0.0530 -0.8276
  909SOL    HW1 2905   4.243   2.676   3.166  0.3452 -1.0146  1.0626
  909SOL    HW2 2906   4.355   2.755   3.078 -2.8077  1.0622 -1.3543
  910SOL     OW 2907   8.218   4.586   1.188  0.3543  0.0678 -0.3216
  910SOL    HW1 2908   8.226   4.523   1.111 -0.1180  0.3044 -0.5669
  910SOL    HW2 2909   8.166   4.542   1.262 -0.3012  0.2916 -0.6374
  911SOL     OW 2910   5.606   6.060   1.467  0.1189  0.5268 -0.1893
  911SOL    HW1 2911   5.563   6.095   1.550  0.1482 -0.1472  0.1159
  911SOL    HW2 2912   5.540   6.061   1.392 -0.3860 -0.3246  0.2315
  912SOL     OW 2913   2.541   2.778   6.340 -0.4739 -0.3955  0.0619
  912SOL    HW1 2914   2.451   2.737   6.322 -0.5167  0.2144 -1.2276
  912SOL    HW2 2915   2.608   2.705   6.355 -0.6672 -0.9504 -1.5967
  913SOL     OW 2916   7.507   3.294   6.743  0.0838  0.3391  0.3753
  913SOL    HW1 2917   7.595   3.252   6.765 -0.6161 -1.3317  0.0905
  913SOL    HW2 2918   7.459   3.317   6.827  0.4591  0.5448  0.5346
  914SOL     OW 2919   2.239   3.402   6.115 -0.0963 -0.1272  0.0970
  914SOL    HW1 2920   2.166   3.462   6.082  0.4810  0.1715 -0.6641
  914SOL    HW2 2921   2.322   3.455   6.130  0.3641 -0.6861 -0.3819
  915SOL     OW 2922   6.606   2.896   0.755 -0.1745 -0.2620  0.0042
  915SOL    HW1 2923   6.534   2.857   0.697 -0.7532 -1.2618  1.3363
  915SOL    HW2 2924   6.651   2.971   0.706 -0.3255 -1.3427 -1.8883
  916SOL     OW 2925   8.173   3.375   0.567  0.6936 -0.2961 -0.6919
  916SOL    HW1 2926   8.079   3.397   0.540  1.6042  3.7809 -1.1185
  916SOL    HW2 2927   8.187   3.400   0.663  1.5392 -0.0756 -0.8613
  917SOL     OW 2928   6.573   6.348   5.817  0.5487 -0.1074 -0.5037
  917SOL    HW1 2929   6.615   6.362   5.907  2.7061 -1.5304 -1.1966
  917SOL    HW2 2930   6.561   6.250   5.802 -1.5129  0.2028 -1.0692
  918SOL     OW 2931   1.441   1.026   4.925  0.2810 -0.4499 -0.6801
  918SOL    HW1 2932   1.520   0.965   4.936 -1.2088 -2.1684  1.5189
  918SOL    HW2 2933   1.441   1.093   4.999 -0.9611 -1.3320  0.1663
  919SOL     OW 2934   5.949   5.415   0.229  0.4128  0.1589  0.3286
  919SOL    HW1 2935   5.967   5.511   0.250 -0.6756  0.3784  0.3450
  919SOL    HW2 2936   5.850   5.398   0.235  0.6880 -1.2185  1.4039
  920SOL     OW 2937   6.635   7.076   3.943  0.2390  0.1308  0.1957
  920SOL    HW1 2938   6.701   7.049   4.013  1.2846  0.6305 -0.5714
  920SOL    HW2 2939   6.558   7.012   3.944  1.1614 -1.0154  0.5006
  921SOL     OW 2940   0.468   3.821   6.303 -0.5707 -0.2757 -0.2543
  921SOL    HW1 2941   0.494   3.885   6.376 -1.1545  0.0165 -0.2960
  921SOL    HW2 2942   0.550   3.794   6.252 -0.4814  1.4809 -1.0949
  922SOL     OW 2943   3.974   7.448   1.344  0.7600 -0.7497  0.4034
  922SOL    HW1 2944   3.932   7.364   1.378  0.5540 -1.0673 -0.6235
  922SOL    HW2 2945   3.973   7.517   1.417  0.0313 -1.3098  0.9372
  923SOL     OW 2946   5.528   7.488   4.500 -0.5775 -0.1732  0.7191
  923SOL    HW1 2947   5.457   7.528   4.559  0.5979  1.0749  1.3522
  923SOL    HW2 2948   5.617   7.497   4.545  0.0809 -1.0925 -0.3557
  924SOL     OW 2949   7.102   8.420   4.916  0.1234  0.1241  0.0986
  924SOL    HW1 2950   7.147   8.370   4.990  0.4945 -0.5932 -0.5902
  924SOL    HW2 2951   7.113   8.518   4.930  1.0195 -0.0226  0.4909
  925SOL     OW 2952   8.033   7.223   1.530  0.2254 -0.3034  0.5998
  925SOL    HW1 2953   7.956   7.164   1.505  0.8054 -0.8995  0.1697
  925SOL    HW2 2954   8.113   7.197   1.477  1.0879 -0.5467  1.9781
  926SOL     OW 2955   4.692   5.710   2.767  0.2812 -0.1545 -0.5051
  926SOL    HW1 2956   4.694   5.784   2.834 -0.8640 -0.1373 -0.4761
  926SOL    HW2 2957   4.696   5.622   2.814  0.4421 -0.1314 -0.4741
  927SOL     OW 2958   3.752   2.418   3.177  0.7306  0.3250 -0.1662
  927SOL    HW1 2959   3.823   2.353   3.204  0.3759  0.9533  2.5596
  927SOL    HW2 2960   3.662   2.383   3.204  0.4435  1.4586  0.4202
  928SOL     OW 2961   7.151   3.974   4.783 -0.0032  0.0476  0.2342
  928SOL    HW1 2962   7.206   3.892   4.764 -0.0227  0.0848  0.0113
  928SOL    HW2 2963   7.063   3.966   4.736 -0.1184  0.0669  0.4469
  929SOL     OW 2964   5.063   4.717   8.759  0.1093  0.2124 -0.3355
  929SOL    HW1 2965   5.054   4.685   8.853  1.2890 -0.3961 -0.4091
  929SOL    HW2 2966   4.976   4.757   8.728 -0.6607 -0.6997  0.5858
  930SOL     OW 2967   2.309   0.469   6.929  0.0372  0.2369  0.1984
  930SOL    HW1 2968   2.229   0.456   6.987 -0.0933  3.2280  0.8108
  930SOL    HW2 2969   2.282   0.462   6.833 -1.1031  1.7006  0.3851
  931SOL     OW 2970   2.000   5.717   2.771 -0.5344  0.1712 -0.3717
  931SOL    HW1 2971   1.964   5.625   2.757 -0.2417 -0.0627  0.3545
  931SOL    HW2 2972   1.933   5.773   2.818 -0.1191 -0.1482  0.6239
  932SOL     OW 2973   4.500   2.001   5.784  0.2096  0.7616 -0.6528
  932SOL    HW1 2974   4.509   1.938   5.860  0.0496  1.3114 -0.1700
  932SOL    HW2 2975   4.587   2.009   5.736  0.1321 -0.1148 -0.9573
  933SOL     OW 2976   7.323   1.363   3.858  0.1625 -0.4170 -0.2327
  933SOL    HW1 2977   7.294   1.363   3.954 -1.1398 -0.7231 -0.6048
  933SOL    HW2 2978   7.392   1.434   3.845  0.2822 -0.2929  0.9042
  934SOL     OW 2979   3.459   0.841   1.087 -0.1226  0.3698  0.0984
  934SOL    HW1 2980   3.523   0.822   1.012 -1.5317  0.8031 -1.2799
  934SOL    HW2 2981   3.435   0.938   1.085 -1.0192  0.1554  0.4266
  935SOL     OW 2982   6.674   1.809   1.873  0.2654  0.6905  0.3923
  935SOL    HW1 2983   6.601   1.743   1.888  1.1059 -0.1514  0.8625
  935SOL    HW2 2984   6.680   1.831   1.776  0.1999 -0.1918  0.1808
  936SOL     OW 2985   3.844   2.664   4.870 -0.1287 -0.2634  0.1723
  936SOL    HW1 2986   3.843   2.579   4.923  1.0488  1.5108  3.2487
  936SOL    HW2 2987   3.912   2.726   4.907 -2.9275  3.2152  0.0306
  937SOL     OW 2988   8.608   1.880   2.354  0.0224  0.8071 -0.1145
  937SOL    HW1 2989   8.548   1.960   2.364 -0.3877  0.5362 -0.3713
  937SOL    HW2 2990   8.599   1.821   2.435  0.5271  1.1546  0.1953
  938SOL     OW 2991   2.079   5.866   7.564 -0.6934 -0.5824  0.7506
  938SOL    HW1 2992   2.140   5.942   7.588  0.2265 -0.8197 -0.6811
  938SOL    HW2 2993   2.076   5.800   7.640 -0.9517  0.5150  1.7266
  939SOL     OW 2994   2.506   1.664   5.491  0.5777  0.1599  0.2935
  939SOL    HW1 2995   2.438   1.686   5.560  1.9125  3.7970  0.7130
  939SOL    HW2 2996   2.558   1.584   5.520  0.2519  0.7906  2.9192
  940SOL     OW 2997   7.658   2.141   8.332  0.4723 -0.6365  0.0965
  940SOL    HW1 2998   7.682   2.129   8.236 -0.1052  1.1739 -0.3106
  940SOL    HW2 2999   7.561   2.164   8.340  0.2169 -1.9662  1.2305
  941SOL     OW 3000   8.459   6.435   8.676 -0.5238 -0.2997 -0.3195
  941SOL    HW1 3001   8.510   6.504   8.728  0.1287  0.3527 -1.7524
  941SOL    HW2 3002   8.393   6.481   8.617  0.9098 -0.7432 -2.3623
  942SOL     OW 3003   4.420   1.532   1.480 -0.3108  0.4934 -0.0635
  942SOL    HW1 3004   4.466   1.529   1.569  1.7655  1.5410 -1.0179
  942SOL    HW2 3005   4.357   1.609   1.478  0.8193  1.4538  0.0166
  943SOL     OW 3006   4.319   0.843   3.069 -0.0208  0.3351 -0.0307
  943SOL    HW1 3007   4.318   0.890   2.980  2.3293 -1.1977 -0.9586
  943SOL    HW2 3008   4.243   0.778   3.073 -1.0909  1.5276 -0.2264
  944SOL     OW 3009   6.975   3.753   2.807 -0.0585  0.1728 -0.0134
  944SOL    HW1 3010   6.959   3.707   2.895  1.5175  0.4986  0.4814
  944SOL    HW2 3011   7.005   3.685   2.740 -0.7971 -0.0019 -0.1719
  945SOL     OW 3012   1.212   4.147   4.630  0.0345  0.5901  0.1902
  945SOL    HW1 3013   1.207   4.129   4.728 -1.5413  0.0751  0.0394
  945SOL    HW2 3014   1.152   4.224   4.608  0.3045  0.6369 -0.3842
  946SOL     OW 3015   6.940   4.488   4.452  0.6717 -0.9592  0.3514
  946SOL    HW1 3016   6.906   4.442   4.533 -0.9236 -2.3802 -1.0550
  946SOL    HW2 3017   6.869   4.490   4.382  2.3832 -0.9588 -1.4848
  947SOL     OW 3018   0.359   0.133   5.081  0.1104  0.0715  0.4673
  947SOL    HW1 3019   0.383   0.146   5.177  0.5406 -0.4728  0.4396
  947SOL    HW2 3020   0.401   0.048   5.048  0.3407  0.4852 -0.3240
  948SOL     OW 3021   3.318   1.264   6.192 -0.2074 -0.0648 -0.3510
  948SOL    HW1 3022   3.262   1.201   6.246 -1.9285  1.5999 -0.1029
  948SOL    HW2 3023   3.343   1.221   6.106 -1.1481 -1.1680 -0.0996
  949SOL     OW 3024   6.280   7.061   4.764 -0.3730 -0.1092  0.0369
  949SOL    HW1 3025   6.352   7.003   4.725 -0.6597 -1.1549  1.0113
  949SOL    HW2 3026   6.248   7.125   4.695 -1.1594 -2.1711 -1.6077
  950SOL     OW 3027   3.860   4.672   3.537 -0.6032  0.2834  0.5714
  950SOL    HW1 3028   3.946   4.661   3.586 -0.7705 -0.0514  0.7863
  950SOL    HW2 3029   3.825   4.583   3.510  0.0926  0.4942 -1.2143
  951SOL     OW 3030   3.920   4.204   2.022 -0.0161 -0.8106  0.4567
  951SOL    HW1 3031   4.017   4.191   2.042  0.5589 -0.1398 -1.6458
  951SOL    HW2 3032   3.876   4.115   2.014  1.3539 -1.3523 -2.4514
  952SOL     OW 3033   3.249   5.710   1.553  0.1523 -0.0562  0.2254
  952SOL    HW1 3034   3.254   5.614   1.523  3.6244  0.6900 -2.1955
  952SOL    HW2 3035   3.179   5.758   1.499  0.1942 -0.6682 -0.3897
  953SOL     OW 3036   1.737   1.436   0.589 -0.1660 -0.0079  0.2431
  953SOL    HW1 3037   1.749   1.450   0.491  0.2307 -0.1989  0.2656
  953SOL    HW2 3038   1.800   1.366   0.621 -0.7700 -0.4283  0.5118
  954SOL     OW 3039   4.332   5.101   8.371 -0.4194  0.0335  0.5012
  954SOL    HW1 3040   4.432   5.092   8.374 -0.0445  2.6040 -0.9272
  954SOL    HW2 3041   4.295   5.037   8.305  0.5576  0.4673 -0.4983
  955SOL     OW 3042   7.954   4.420   7.195 -0.1613 -0.2313 -0.1578
  955SOL    HW1 3043   7.889   4.354   7.234 -1.1490  0.6147 -0.3241
  955SOL    HW2 3044   8.010   4.374   7.126 -0.5705 -0.9862 -0.0029
  956SOL     OW 3045   7.174   1.391   5.591  0.3896 -0.0514  0.8248
  956SOL    HW1 3046   7.155   1.466   5.655 -0.4534 -0.0327  0.5657
  956SOL    HW2 3047   7.112   1.398   5.512  0.9593 -0.4651  0.3309
  957SOL     OW 3048   8.174   3.247   3.893  0.1109 -0.0430  0.3932
  957SOL    HW1 3049   8.154   3.331   3.942 -1.3475 -1.5937  2.6189
  957SOL    HW2 3050   8.258   3.260   3.839  1.1810  2.1247  2.3851
  958SOL     OW 3051   8.504   8.617   1.338 -0.4132 -0.1976  0.3193
  958SOL    HW1 3052   8.525   8.710   1.307 -0.0228 -1.4402 -3.6882
  958SOL    HW2 3053   8.440   8.621   1.415 -2.1076  3.3825 -1.0683
  959SOL     OW 3054   0.883   1.649   2.558 -0.1576  0.3936 -0.2922
  959SOL    HW1 3055   0.874   1.748   2.565 -0.2148  0.3117  0.9388
  959SOL    HW2 3056   0.815   1.614   2.492 -1.4801  0.9653  0.7183
  960SOL     OW 3057   1.556   3.944   7.479 -0.4055  0.0375 -0.5448
  960SOL    HW1 3058   1.615   3.996   7.540  0.6596 -1.0222 -0.6221
  960SOL    HW2 3059   1.481   3.904   7.531 -0.0687 -0.0357 -0.1103
  961SOL     OW 3060   1.161   7.617   3.554 -0.0021  0.4939  0.1068
  961SOL    HW1 3061   1.165   7.526   3.594 -1.3636 -0.4577 -1.7673
  961SOL    HW2 3062   1.220   7.679   3.606 -0.6436 -0.9264  2.6974
  962SOL     OW 3063   7.361   4.226   8.443  0.5538  0.3247  0.2050
  962SOL    HW1 3064   7.354   4.172   8.527  0.6568 -1.1618 -0.7038
  962SOL    HW2 3065   7.409   4.311   8.462  2.4230 -0.9031  1.2646
  963SOL     OW 3066   4.240   6.655   1.314 -0.2769 -0.5672 -0.3472
  963SOL    HW1 3067   4.286   6.605   1.241  1.3359  1.7420 -1.0345
  963SOL    HW2 3068   4.268   6.618   1.402 -0.0583 -1.6128 -0.8393
  964SOL     OW 3069   2.700   2.360   5.181 -0.3950  0.3623  0.6938
  964SOL    HW1 3070   2.621   2.411   5.216  0.0017  1.3952  0.1324
  964SOL    HW2 3071   2.784   2.399   5.220 -0.0613  0.3743 -0.0268
  965SOL     OW 3072   6.618   2.609   1.068  0.3038 -0.2429 -0.5192
  965SOL    HW1 3073   6.597   2.637   1.162  0.2755 -4.2312  0.8388
  965SOL    HW2 3074   6.550   2.646   1.006 -0.5964  1.2033  1.2315
  966SOL     OW 3075   2.864   5.898   4.358  0.5845 -0.1702 -0.1131
  966SOL    HW1 3076   2.862   5.887   4.259 -1.2554 -0.4611 -0.0694
  966SOL    HW2 3077   2.856   5.995   4.381  0.8841 -0.1138 -0.2331
  967SOL     OW 3078   6.050   5.353   8.043  0.2910 -0.0860 -0.1731
  967SOL    HW1 3079   5.981   5.287   8.014 -0.7448  0.2376  1.4380
  967SOL    HW2 3080   6.081   5.406   7.964 -0.0193 -1.3894 -1.2109
  968SOL     OW 3081   1.170   7.768   4.183  0.0448 -0.1469 -0.1785
  968SOL    HW1 3082   1.232   7.792   4.108  0.5127  0.7556  0.4789
  968SOL    HW2 3083   1.212   7.698   4.240  0.0252 -0.2590 -0.2993
  969SOL     OW 3084   8.315   2.730   4.425 -0.2338  0.4488 -0.2048
  969SOL    HW1 3085   8.324   2.742   4.524 -1.4435 -2.5935  0.3811
  969SOL    HW2 3086   8.220   2.742   4.398  0.0977  1.3231 -1.0392
  970SOL     OW 3087   8.431   6.746   8.330 -0.0931  0.0656 -0.2950
  970SOL    HW1 3088   8.439   6.728   8.428  0.9580  0.9567 -0.1966
  970SOL    HW2 3089   8.366   6.821   8.316  0.4840  0.5883 -0.1999
  971SOL     OW 3090   3.781   7.256   1.829 -0.1357  0.2742 -0.4222
  971SOL    HW1 3091   3.733   7.284   1.912 -0.0307  0.1861 -0.3309
  971SOL    HW2 3092   3.775   7.328   1.760  0.4188  0.6646 -0.0693
  972SOL     OW 3093   4.822   8.805   2.935  0.2329  0.1299  0.5330
  972SOL    HW1 3094   4.729   8.806   2.899  0.5984 -1.2701 -0.5301
  972SOL    HW2 3095   4.885   8.836   2.864  0.9683 -2.6945 -0.1627
  973SOL     OW 3096   7.681   3.696   5.530 -0.1061  0.2671 -0.1422
  973SOL    HW1 3097   7.698   3.794   5.543  1.8284  0.2194 -1.8371
  973SOL    HW2 3098   7.750   3.643   5.578 -0.4699 -0.2555 -0.1862
  974SOL     OW 3099   4.186   4.112   6.247  0.0065 -0.0144  0.4446
  974SOL    HW1 3100   4.089   4.135   6.237  0.0179  0.6500  1.6678
  974SOL    HW2 3101   4.206   4.029   6.195 -0.5203  1.5189 -2.3699
  975SOL     OW 3102   6.877   2.462   2.530 -0.3079  0.1756 -0.3303
  975SOL    HW1 3103   6.808   2.533   2.541  0.1444  0.6297 -0.3835
  975SOL    HW2 3104   6.887   2.440   2.433 -0.1801  0.3136 -0.3495
  976SOL     OW 3105   0.611   3.931   0.614  0.4484 -0.2790 -0.1120
  976SOL    HW1 3106   0.613   4.029   0.597 -1.6002 -0.1275  0.3199
  976SOL    HW2 3107   0.704   3.895   0.612  1.0623  1.1226 -3.3112
  977SOL     OW 3108   4.723   3.475   0.096  0.0017  0.3144 -0.3917
  977SOL    HW1 3109   4.717   3.529   0.180 -0.5993 -0.7699  0.2864
  977SOL    HW2 3110   4.811   3.429   0.092 -0.3282 -0.3713  0.1179
  978SOL     OW 3111   7.034   3.728   4.918  0.4357 -1.0105  0.3596
  978SOL    HW1 3112   6.995   3.818   4.897  1.5477 -0.7779 -0.8376
  978SOL    HW2 3113   7.077   3.690   4.836  4.1832 -0.4756  1.8640
  979SOL     OW 3114   8.231   6.903   0.249 -0.3306  0.0023 -0.3853
  979SOL    HW1 3115   8.252   6.920   0.152  2.4169  2.1870  0.4639
  979SOL    HW2 3116   8.166   6.972   0.281 -0.7810 -0.3617 -0.4997
  980SOL     OW 3117   6.937   2.504   7.786  0.0681 -0.5109 -0.1868
  980SOL    HW1 3118   6.876   2.456   7.724 -0.7134  1.5595 -1.1028
  980SOL    HW2 3119   7.029   2.509   7.745  0.3004 -1.6720  0.1707
  981SOL     OW 3120   3.254   7.571   2.329  0.1370  0.1248 -0.0172
  981SOL    HW1 3121   3.309   7.494   2.362  0.7394  0.4384 -0.2609
  981SOL    HW2 3122   3.157   7.551   2.342  0.1917 -1.3789 -1.5175
  982SOL     OW 3123   5.949   3.338   7.922  0.0614 -0.3030  0.2198
  982SOL    HW1 3124   5.963   3.398   8.000  0.6387 -0.1708  0.0164
  982SOL    HW2 3125   5.875   3.274   7.943 -0.4628  0.3722  0.4950
  983SOL     OW 3126   7.251   2.070   1.545 -0.2023  0.4818 -0.1901
  983SOL    HW1 3127   7.311   2.069   1.625 -1.1166  0.1263  0.5138
  983SOL    HW2 3128   7.293   2.019   1.471 -0.2450 -1.0407  0.7727
  984SOL     OW 3129   8.856   1.212   4.761  0.0766  0.1598 -0.7578
  984SOL    HW1 3130   8.837   1.263   4.678  1.0611 -1.5719 -2.1224
  984SOL    HW2 3131   8.954   1.214   4.781  0.3648 -2.1075 -1.5768
  985SOL     OW 3132   3.625   8.096   6.215 -0.7583  0.3452  0.1839
  985SOL    HW1 3133   3.611   8.175   6.156  2.6656  1.9084  1.2226
  985SOL    HW2 3134   3.611   8.123   6.311  3.1147  0.6610  0.8147
  986SOL     OW 3135   4.942   7.623   5.298  0.3906 -0.4997  0.5263
  986SOL    HW1 3136   4.888   7.616   5.214 -1.0495  2.6169  1.0067
  986SOL    HW2 3137   4.896   7.572   5.371  1.1700 -2.4824 -0.3291
  987SOL     OW 3138   1.836   8.172   1.187  0.0355 -0.4917 -0.0256
  987SOL    HW1 3139   1.755   8.225   1.162 -0.1659  0.1843  1.8979
  987SOL    HW2 3140   1.816   8.075   1.181 -0.7292 -0.3326 -0.1172
  988SOL     OW 3141   0.116   2.842   4.232 -0.0972 -0.8554  0.3829
  988SOL    HW1 3142   0.150   2.749   4.219  2.1143 -0.0710  0.0434
  988SOL    HW2 3143   0.046   2.862   4.164  2.2478 -1.0190 -2.2607
  989SOL     OW 3144   6.081   5.296   3.087  0.0284 -0.2053 -0.0188
  989SOL    HW1 3145   6.158   5.310   3.148 -0.2257 -1.4869  0.6093
  989SOL    HW2 3146   6.003   5.349   3.120  0.0485 -0.4775  0.4680
  990SOL     OW 3147   4.405   7.446   0.521 -0.2775 -0.1805  0.2100
  990SOL    HW1 3148   4.470   7.499   0.575  0.6317 -0.8805 -0.1711
  990SOL    HW2 3149   4.453   7.395   0.450 -1.4918  1.0291 -1.5591
  991SOL     OW 3150   8.035   4.413   6.858 -0.3268 -0.1132  0.0243
  991SOL    HW1 3151   8.126   4.421   6.817 -0.7240 -1.3448 -1.1784
  991SOL    HW2 3152   8.014   4.495   6.910 -0.4170  2.3440 -3.5306
  992SOL     OW 3153   5.626   0.337   6.531  0.3794 -0.0657 -0.0287
  992SOL    HW1 3154   5.610   0.313   6.435  0.6086 -0.0396 -0.0745
  992SOL    HW2 3155   5.657   0.256   6.581 -1.8003 -0.6333  0.5222
  993SOL     OW 3156   4.870   5.106   3.900 -0.9063  0.9749  0.4378
  993SOL    HW1 3157   4.899   5.185   3.953 -0.7548  2.8361 -2.1783
  993SOL    HW2 3158   4.947   5.071   3.846 -1.1951 -0.4002  0.8793
  994SOL     OW 3159   1.676   2.882   6.088 -0.1618 -0.1227 -0.3253
  994SOL    HW1 3160   1.696   2.977   6.063  1.8063 -0.3791  0.1109
  994SOL    HW2 3161   1.749   2.846   6.146 -1.7109 -1.3947  0.9607
  995SOL     OW 3162   8.282   0.916   2.743  0.3470  0.5840 -0.0994
  995SOL    HW1 3163   8.190   0.939   2.712 -0.5629 -1.3105  1.0672
  995SOL    HW2 3164   8.307   0.974   2.820 -0.0227  0.8167 -0.1538
  996SOL     OW 3165   3.540   5.910   6.558 -0.0253  0.1854  0.8069
  996SOL    HW1 3166   3.555   5.839   6.489  1.4583  1.3386 -0.1233
  996SOL    HW2 3167   3.573   5.998   6.524 -0.6429  1.0980  2.4195
  997SOL     OW 3168   1.900   2.063   4.105  0.4212  0.7802 -0.3539
  997SOL    HW1 3169   1.839   2.076   4.183 -1.1050  0.5266 -1.4620
  997SOL    HW2 3170   1.978   2.006   4.133 -0.8985 -0.6204  0.6273
  998SOL     OW 3171   5.815   6.393   1.323 -0.0175  0.1500  0.0038
  998SOL    HW1 3172   5.819   6.296   1.300  0.9705  0.7100 -2.6215
  998SOL    HW2 3173   5.736   6.435   1.279  0.1562  0.7239  0.2213
  999SOL     OW 3174   4.230   7.677   5.789  0.2084 -0.1270 -0.7816
  999SOL    HW1 3175   4.266   7.686   5.882 -0.4725 -1.5279 -0.3424
  999SOL    HW2 3176   4.131   7.687   5.790  0.0439 -1.5090 -1.1143
 1000SOL     OW 3177   7.606   6.019   2.231 -0.1164 -1.0154 -0.2453
 1000SOL    HW1 3178   7.578   6.018   2.327  2.2645  0.7849  0.5937
 1000SOL    HW2 3179   7.590   5.930   2.190  0.7458 -2.5422  2.4718
 1001SOL     OW 3180   5.399   1.344   8.160 -0.4062  0.2194 -0.1632
 1001SOL    HW1 3181   5.413   1.264   8.219  0.1562 -0.3261 -0.9974
 1001SOL    HW2 3182   5.445   1.424   8.199  0.4679 -0.2738 -0.1370
 1002SOL     OW 3183   8.558   7.379   7.787 -0.1034  0.0061  0.1281
 1002SOL    HW1 3184   8.528   7.289   7.755 -0.2632 -0.1200  0.6166
 1002SOL    HW2 3185   8.649   7.370   7.827  0.5360  0.3544 -1.1917
 1003SOL     OW 3186   4.713   6.695   1.426  0.3509 -0.4187 -0.1432
 1003SOL    HW1 3187   4.654   6.685   1.506  0.5200  2.2683  0.4142
 1003SOL    HW2 3188   4.657   6.707   1.344  0.0866  0.8828  0.2043
 1004SOL     OW 3189   1.836   3.180   4.763 -0.4114 -0.5995 -0.2315
 1004SOL    HW1 3190   1.921   3.210   4.806  1.0846 -2.3484 -1.7747
 1004SOL    HW2 3191   1.822   3.082   4.781 -0.9001 -0.8478 -1.8037
 1005SOL     OW 3192   3.220   1.183   4.515  0.4298 -0.4314 -0.0139
 1005SOL    HW1 3193   3.247   1.184   4.611  1.6630 -0.2227 -0.3442
 1005SOL    HW2 3194   3.142   1.243   4.502 -0.8140 -1.7139  1.1316
 1006SOL     OW 3195   3.261   4.794   8.743  0.1846 -0.5380  0.0592
 1006SOL    HW1 3196   3.245   4.813   8.840 -0.3101  0.1253 -0.1467
 1006SOL    HW2 3197   3.185   4.830   8.689  1.1443  0.4200 -0.7090
 1007SOL     OW 3198   4.208   6.812   8.684 -0.3073  0.4358  0.2004
 1007SOL    HW1 3199   4.253   6.732   8.644 -0.8067  0.8327 -1.1976
 1007SOL    HW2 3200   4.216   6.889   8.622 -0.0568  1.4223  1.4233
 1008SOL     OW 3201   2.248   8.659   6.986 -0.1823 -0.1674 -0.2557
 1008SOL    HW1 3202   2.189   8.599   7.041 -0.9637  0.7812 -0.0285
 1008SOL    HW2 3203   2.232   8.643   6.889 -1.0156  0.2544 -0.1964
 1009SOL     OW 3204   4.239   6.656   6.964 -0.2121  0.3953 -0.5762
 1009SOL    HW1 3205   4.151   6.609   6.973 -0.7955  1.4425 -0.7029
 1009SOL    HW2 3206   4.313   6.591   6.982 -1.0462  0.1040  2.3289
 1010SOL     OW 3207   4.015   0.557   8.018 -0.0832 -0.1639 -0.4186
 1010SOL    HW1 3208   4.033   0.459   8.029 -0.7236 -0.1778  0.6840
 1010SOL    HW2 3209   4.041   0.586   7.926 -0.0474 -1.4060 -0.8141
 1011SOL     OW 3210   8.574   1.168   1.872 -0.1991 -0.4006 -0.0990
 1011SOL    HW1 3211   8.569   1.128   1.963 -2.3805 -1.5637 -0.6804
 1011SOL    HW2 3212   8.531   1.259   1.872  1.7788  0.5972  0.4638
 1012SOL     OW 3213   4.119   8.074   2.018  0.1826 -0.0889  0.4127
 1012SOL    HW1 3214   4.083   8.032   1.934 -2.8371  1.8598  0.5671
 1012SOL    HW2 3215   4.218   8.062   2.022  0.4357 -0.3992 -3.3517
 1013SOL     OW 3216   6.874   4.625   3.747  0.0626  0.0474 -0.4643
 1013SOL    HW1 3217   6.800   4.646   3.810 -0.6269 -0.8375 -0.9469
 1013SOL    HW2 3218   6.836   4.581   3.665  1.1128 -0.3837 -0.7383
 1014SOL     OW 3219   3.795   6.755   5.066  0.0600  0.2280  0.2629
 1014SOL    HW1 3220   3.842   6.675   5.030 -0.6297  0.6680 -1.7636
 1014SOL    HW2 3221   3.811   6.762   5.164  1.2731 -1.5898  0.2412
 1015SOL     OW 3222   3.978   1.939   4.248  0.6494  0.5003 -0.0624
 1015SOL    HW1 3223   3.946   1.906   4.160  0.2457  0.3712  0.1296
 1015SOL    HW2 3224   4.078   1.935   4.251  0.6219 -0.5881 -0.0954
 1016SOL     OW 3225   5.976   7.445   3.403 -0.0128  0.0454 -0.3738
 1016SOL    HW1 3226   5.941   7.430   3.495 -0.2439  1.6647 -0.1555
 1016SOL    HW2 3227   5.986   7.358   3.356 -4.3991 -0.6542 -0.4555
 1017SOL     OW 3228   3.997   1.250   6.954 -0.1451  0.0571  0.1368
 1017SOL    HW1 3229   3.972   1.282   7.046 -1.6200  0.3490 -0.3388
 1017SOL    HW2 3230   4.038   1.325   6.903  0.8045 -0.1413  0.5785
 1018SOL     OW 3231   0.893   5.571   4.516 -0.2675  0.6343 -0.3307
 1018SOL    HW1 3232   0.973   5.513   4.499 -0.3430  1.0149 -2.2253
 1018SOL    HW2 3233   0.905   5.658   4.469 -2.1316  0.3867 -1.3569
 1019SOL     OW 3234   0.641   2.025   2.304  0.7397 -0.1356 -0.3777
 1019SOL    HW1 3235   0.705   2.066   2.368  0.9044 -1.3296  0.2456
 1019SOL    HW2 3236   0.564   1.986   2.354 -0.3890  1.0511 -1.0939
 1020SOL     OW 3237   1.458   1.886   4.587  0.0922 -0.0591  0.1118
 1020SOL    HW1 3238   1.542   1.917   4.543  0.5706 -1.1234  0.2322
 1020SOL    HW2 3239   1.412   1.820   4.528  0.3883 -0.9909  0.8925
 1021SOL     OW 3240   1.397   2.101   7.435 -0.2529  0.0139  0.2412
 1021SOL    HW1 3241   1.416   2.018   7.487  0.8598  1.3291  2.0756
 1021SOL    HW2 3242   1.371   2.078   7.341  0.8751 -2.3384  0.4548
 1022SOL     OW 3243   5.787   4.634   7.044 -0.1237  0.3017 -0.6658
 1022SOL    HW1 3244   5.880   4.662   7.067  0.1875 -1.5390  0.4446
 1022SOL    HW2 3245   5.729   4.640   7.125 -0.5869 -0.0953 -0.9663
 1023SOL     OW 3246   2.171   7.692   4.328 -0.0337 -0.3559  0.6116
 1023SOL    HW1 3247   2.254   7.730   4.368 -0.5770  0.1485  1.2757
 1023SOL    HW2 3248   2.111   7.766   4.299 -0.4838 -0.7177  0.6093
 1024SOL     OW 3249   1.281   8.836   7.351 -0.2938 -0.6492 -0.2043
 1024SOL    HW1 3250   1.211   8.854   7.420  0.6357  0.2747  0.5329
 1024SOL    HW2 3251   1.257   8.882   7.266 -0.0738  0.5827  0.3742
 1025SOL     OW 3252   1.475   5.318   1.667  0.0048 -0.1404 -0.0744
 1025SOL    HW1 3253   1.570   5.301   1.690  0.2195  1.2386  0.1155
 1025SOL    HW2 3254   1.443   5.399   1.715 -0.7905  0.3449 -1.3799
 1026SOL     OW 3255   3.442   7.813   7.365  0.6034 -0.2603 -0.1245
 1026SOL    HW1 3256   3.400   7.810   7.455  0.2333 -0.2036 -0.2914
 1026SOL    HW2 3257   3.429   7.903   7.324 -1.3566 -0.9621 -1.2126
 1027SOL     OW 3258   8.630   0.588   6.577 -0.3076 -0.4055  0.1604
 1027SOL    HW1 3259   8.642   0.489   6.562 -0.0966 -0.6519  1.7722
 1027SOL    HW2 3260   8.626   0.634   6.488 -1.1012 -1.9309 -0.6455
 1028SOL     OW 3261   1.939   0.324   1.351 -0.5411 -0.4576  0.5216
 1028SOL    HW1 3262   2.011   0.388   1.323 -0.4788 -0.6983  0.1268
 1028SOL    HW2 3263   1.863   0.375   1.391 -1.0282 -0.0043 -0.8985
 1029SOL     OW 3264   2.623   5.940   1.497  0.0804  0.1063  0.1261
 1029SOL    HW1 3265   2.612   5.869   1.566 -0.7973  1.2059  1.1528
 1029SOL    HW2 3266   2.674   5.903   1.419 -1.7262 -2.1446 -0.1050
 1030SOL     OW 3267   1.413   4.784   8.382 -0.6501  0.2177  0.0400
 1030SOL    HW1 3268   1.361   4.765   8.299 -0.9203  2.1138 -0.2816
 1030SOL    HW2 3269   1.364   4.749   8.462 -0.5320 -1.3552 -0.5479
 1031SOL     OW 3270   6.438   8.373   4.497 -0.5907  0.1049 -0.7114
 1031SOL    HW1 3271   6.491   8.379   4.413  0.7850  1.5361  0.2051
 1031SOL    HW2 3272   6.372   8.447   4.500  1.1347  1.6865  0.5706
 1032SOL     OW 3273   5.470   7.968   2.168  0.1688  0.0198 -0.1842
 1032SOL    HW1 3274   5.472   8.061   2.133  0.2950  0.5863  1.2349
 1032SOL    HW2 3275   5.547   7.954   2.230  0.1484 -1.0245 -0.3740
 1033SOL     OW 3276   4.734   4.736   2.112  0.3094 -0.3546 -0.5363
 1033SOL    HW1 3277   4.761   4.743   2.208 -0.3311 -2.0556 -0.2003
 1033SOL    HW2 3278   4.757   4.821   2.065  1.6244  0.1118  0.8639
 1034SOL     OW 3279   1.748   8.816   7.203 -0.1677 -0.0808 -0.2186
 1034SOL    HW1 3280   1.792   8.905   7.195 -1.1421  0.3010 -1.7938
 1034SOL    HW2 3281   1.803   8.756   7.262  1.3367  1.0281 -0.4437
 1035SOL     OW 3282   3.351   2.103   5.442 -0.2120 -0.5553 -0.7796
 1035SOL    HW1 3283   3.364   2.190   5.394  0.0699 -1.0906 -1.6931
 1035SOL    HW2 3284   3.437   2.076   5.485 -0.4542 -0.0960  0.0264
 1036SOL     OW 3285   1.877   2.705   1.831 -0.7565  0.2099  0.2861
 1036SOL    HW1 3286   1.800   2.741   1.885 -0.4054  1.2125  0.1516
 1036SOL    HW2 3287   1.865   2.730   1.735 -0.7722 -0.5260  0.0899
 1037SOL     OW 3288   4.290   7.908   2.795  0.2819  0.6410  0.3115
 1037SOL    HW1 3289   4.321   7.963   2.718  0.8729  1.1313  0.8821
 1037SOL    HW2 3290   4.345   7.825   2.802 -1.2763 -0.5992 -1.1762
 1038SOL     OW 3291   5.324   5.076   6.450 -0.3845 -0.5010 -0.2751
 1038SOL    HW1 3292   5.362   5.052   6.539 -1.8253  0.5929  0.6724
 1038SOL    HW2 3293   5.253   5.146   6.461 -1.9848 -1.7291 -2.0530
 1039SOL     OW 3294   3.258   2.453   2.503  0.3083 -0.5262 -0.1618
 1039SOL    HW1 3295   3.215   2.419   2.420 -0.2375 -0.7852  0.2192
 1039SOL    HW2 3296   3.323   2.386   2.537  0.5288 -0.4218 -0.3750
 1040SOL     OW 3297   1.573   3.521   4.546 -0.1173 -0.3505  0.2944
 1040SOL    HW1 3298   1.668   3.488   4.544  0.6410  1.6823 -1.1721
 1040SOL    HW2 3299   1.573   3.621   4.553 -2.1953 -0.3597  0.9451
 1041SOL     OW 3300   3.717   1.391   0.198  0.2414 -0.5056  1.0739
 1041SOL    HW1 3301   3.639   1.424   0.144 -0.1051 -1.9747  0.6381
 1041SOL    HW2 3302   3.685   1.323   0.264  1.0538 -0.5784  1.3972
 1042SOL     OW 3303   8.541   4.129   4.201  0.0975 -0.2933 -0.0653
 1042SOL    HW1 3304   8.444   4.147   4.217  0.3626  1.4158 -0.2006
 1042SOL    HW2 3305   8.576   4.192   4.132  1.6515  0.1135  1.0321
 1043SOL     OW 3306   2.971   5.667   8.457  0.1845 -0.5026  0.1812
 1043SOL    HW1 3307   3.051   5.608   8.458  1.4459  1.0944 -0.6682
 1043SOL    HW2 3308   2.947   5.693   8.551  0.5828 -1.0884  0.4495
 1044SOL     OW 3309   1.515   7.782   5.816  0.0272 -0.2413  0.5382
 1044SOL    HW1 3310   1.522   7.802   5.914 -1.1772 -0.6300  0.7203
 1044SOL    HW2 3311   1.430   7.820   5.779  0.3420 -0.3229 -0.2989
 1045SOL     OW 3312   6.796   0.605   5.706 -0.0187  0.0942 -0.1702
 1045SOL    HW1 3313   6.810   0.589   5.608  1.7084 -1.2719  0.2434
 1045SOL    HW2 3314   6.723   0.672   5.719 -0.3077  0.2796 -2.3805
 1046SOL     OW 3315   7.635   2.984   3.987 -0.4788 -0.2219  0.3198
 1046SOL    HW1 3316   7.701   3.012   3.918 -2.7214  0.1267 -1.8417
 1046SOL    HW2 3317   7.633   3.050   4.061  1.5495 -0.2660  0.4695
 1047SOL     OW 3318   2.553   0.758   1.589  0.3090  0.4141 -0.3546
 1047SOL    HW1 3319   2.644   0.743   1.629 -0.1260 -0.0076  0.4910
 1047SOL    HW2 3320   2.549   0.849   1.548  0.0854  1.7606  2.4893
 1048SOL     OW 3321   1.692   2.197   1.185 -1.0490 -0.7277 -0.5212
 1048SOL    HW1 3322   1.620   2.162   1.244 -2.2661  1.0739 -0.8597
 1048SOL    HW2 3323   1.681   2.159   1.093 -0.6424 -1.6098 -0.2155
 1049SOL     OW 3324   3.706   0.687   8.151 -0.2207  0.1686 -0.6854
 1049SOL    HW1 3325   3.739   0.680   8.245 -0.6363  0.4566 -0.5132
 1049SOL    HW2 3326   3.737   0.608   8.098 -1.0563 -0.6684  0.0304
 1050SOL     OW 3327   2.649   1.407   7.946  0.3497  0.4279 -0.3258
 1050SOL    HW1 3328   2.611   1.327   7.991  0.7203  1.3773  1.7908
 1050SOL    HW2 3329   2.615   1.412   7.852 -0.9446 -1.2992  0.0052
 1051SOL     OW 3330   2.154   5.434   6.448  0.1982  0.2633 -0.0682
 1051SOL    HW1 3331   2.116   5.432   6.541  0.2906 -0.8131 -0.0434
 1051SOL    HW2 3332   2.081   5.455   6.383 -0.3608 -1.2313  0.0387
 1052SOL     OW 3333   3.539   5.936   8.189  0.0240 -0.2828  0.3735
 1052SOL    HW1 3334   3.627   5.939   8.235 -0.9823  0.1093  2.3891
 1052SOL    HW2 3335   3.479   6.006   8.226 -0.8267  0.1846 -1.7167
 1053SOL     OW 3336   4.003   0.745   0.746  0.0488  0.2785  0.1413
 1053SOL    HW1 3337   3.995   0.659   0.697  0.7126 -0.8588  1.9175
 1053SOL    HW2 3338   3.954   0.817   0.697 -0.4810 -1.0944 -1.3996
 1054SOL     OW 3339   2.614   2.813   6.073  0.5595 -0.2872 -0.2928
 1054SOL    HW1 3340   2.584   2.813   6.168  0.4131 -0.1024 -0.3382
 1054SOL    HW2 3341   2.545   2.859   6.016  0.7763 -0.1458 -0.4459
 1055SOL     OW 3342   8.066   3.029   7.084 -0.0738 -0.1070  0.0601
 1055SOL    HW1 3343   8.003   3.106   7.099 -0.7081 -0.8888  1.6477
 1055SOL    HW2 3344   8.125   3.049   7.006 -1.5704  1.1135 -0.8190
 1056SOL     OW 3345   0.381   6.736   3.404 -0.0308  0.4525  0.1813
 1056SOL    HW1 3346   0.349   6.698   3.491  1.1379 -0.1391  0.3655
 1056SOL    HW2 3347   0.385   6.663   3.336 -1.3918  1.0001 -0.5275
 1057SOL     OW 3348   0.324   7.950   0.055 -0.2353 -0.5620  0.6090
 1057SOL    HW1 3349   0.253   7.880   0.054 -0.4899 -0.4747 -3.0848
 1057SOL    HW2 3350   0.360   7.961  -0.038  0.2269  3.7881  1.1044
 1058SOL     OW 3351   5.598   3.625   7.384  0.5379 -0.2267 -0.2194
 1058SOL    HW1 3352   5.587   3.526   7.391  1.5623 -0.2834  0.9269
 1058SOL    HW2 3353   5.691   3.647   7.354  0.1945  0.3860 -0.8749
 1059SOL     OW 3354   3.659   6.084   0.630  0.4353  0.1390  0.2067
 1059SOL    HW1 3355   3.719   6.057   0.555  0.4443  1.3203 -0.2354
 1059SOL    HW2 3356   3.574   6.032   0.626  0.3630  0.3220 -0.7255
 1060SOL     OW 3357   3.591   7.620   3.313  0.4515 -0.0117  1.1854
 1060SOL    HW1 3358   3.579   7.646   3.217  2.0592  1.1230  1.2554
 1060SOL    HW2 3359   3.530   7.544   3.334 -2.0754  1.5395  0.0583
 1061SOL     OW 3360   4.746   7.722   0.382 -0.6542  0.1181 -1.0916
 1061SOL    HW1 3361   4.825   7.686   0.331  0.6115  0.7272  0.3516
 1061SOL    HW2 3362   4.746   7.822   0.377 -0.2747  0.2191  0.3585
 1062SOL     OW 3363   3.555   8.150   7.007 -0.7730 -0.2363  0.1377
 1062SOL    HW1 3364   3.470   8.200   6.988 -0.8518 -1.3233 -2.8802
 1062SOL    HW2 3365   3.616   8.156   6.928  1.4032 -0.6848  1.6924
 1063SOL     OW 3366   3.927   8.499   0.796  0.7682 -0.4812  0.0556
 1063SOL    HW1 3367   3.852   8.504   0.861 -3.7763 -0.5283 -4.5453
 1063SOL    HW2 3368   3.969   8.589   0.785  0.5444 -0.1413  1.6990
 1064SOL     OW 3369   4.104   2.200   6.445  0.0321 -0.2198  0.3356
 1064SOL    HW1 3370   4.030   2.258   6.410  1.2130  0.6214 -0.9238
 1064SOL    HW2 3371   4.124   2.128   6.379 -0.6823 -1.4099  1.3902
 1065SOL     OW 3372   7.027   3.237   3.023  0.2486  0.3689  0.6533
 1065SOL    HW1 3373   7.078   3.322   3.028  0.1144  0.4894  0.0062
 1065SOL    HW2 3374   7.090   3.160   3.028  0.5350  0.5176 -0.4599
 1066SOL     OW 3375   8.673   1.811   4.932  0.1783 -0.0579 -0.8865
 1066SOL    HW1 3376   8.755   1.762   4.901  0.5349  0.3304 -0.5763
 1066SOL    HW2 3377   8.655   1.888   4.870  0.7938  0.6180 -0.2601
 1067SOL     OW 3378   5.640   8.226   6.991 -0.6147  0.1190  0.0677
 1067SOL    HW1 3379   5.624   8.271   7.079  0.3929 -0.1394  0.3867
 1067SOL    HW2 3380   5.734   8.241   6.962 -0.6286 -0.7099 -0.4391
 1068SOL     OW 3381   1.202   6.091   4.346 -0.2170  0.0595  0.5667
 1068SOL    HW1 3382   1.144   6.058   4.271  0.0504 -0.0404  0.4020
 1068SOL    HW2 3383   1.279   6.142   4.308  1.2376 -1.9756  0.6147
 1069SOL     OW 3384   2.406   3.465   4.728  0.1387  0.2836  0.0669
 1069SOL    HW1 3385   2.489   3.416   4.702 -0.7830 -1.5273  0.3476
 1069SOL    HW2 3386   2.416   3.501   4.821  0.2887 -0.7165  0.4488
 1070SOL     OW 3387   0.021   3.046   1.525  0.3820 -0.0270 -0.7509
 1070SOL    HW1 3388  -0.011   3.030   1.431 -1.3106 -0.2017 -0.1790
 1070SOL    HW2 3389   0.020   3.144   1.544  1.1873  0.0513 -1.0407
 1071SOL     OW 3390   6.383   3.352   5.963 -0.5614  0.1822  0.2799
 1071SOL    HW1 3391   6.377   3.427   6.028 -1.0200  1.5455 -1.2538
 1071SOL    HW2 3392   6.369   3.388   5.870  0.0175 -1.6820 -0.5713
 1072SOL     OW 3393   3.021   6.288   5.267  0.0597  0.7882  0.1936
 1072SOL    HW1 3394   2.946   6.223   5.260  2.8246 -2.5886 -0.7357
 1072SOL    HW2 3395   3.079   6.265   5.345  0.7733  2.6356  0.2733
 1073SOL     OW 3396   0.212   2.395   3.086 -0.1265  0.7792 -0.4280
 1073SOL    HW1 3397   0.172   2.402   2.994 -1.0828  1.2095  0.0068
 1073SOL    HW2 3398   0.220   2.299   3.111  1.7166  0.5688 -1.6085
 1074SOL     OW 3399   1.774   3.180   8.683 -0.0177 -0.1716 -0.3726
 1074SOL    HW1 3400   1.756   3.274   8.654  2.3566  0.3255 -0.4457
 1074SOL    HW2 3401   1.718   3.158   8.762 -0.0997  1.5778  0.0915
 1075SOL     OW 3402   0.758   8.124   7.640 -0.3904 -0.3478 -0.3692
 1075SOL    HW1 3403   0.845   8.075   7.640 -0.7579 -1.0587  1.0955
 1075SOL    HW2 3404   0.772   8.218   7.611  0.8468 -0.4712 -0.1968
 1076SOL     OW 3405   2.666   7.226   5.050 -0.0195  0.2224 -0.2869
 1076SOL    HW1 3406   2.703   7.134   5.064  0.8968 -0.2220 -4.2899
 1076SOL    HW2 3407   2.576   7.220   5.008  0.3338  1.1118 -1.2070
 1077SOL     OW 3408   1.137   5.603   8.566  0.5807 -0.1614 -0.5466
 1077SOL    HW1 3409   1.052   5.600   8.514  0.6699 -4.4085 -0.8057
 1077SOL    HW2 3410   1.214   5.589   8.504  1.2097  0.3439  0.0960
 1078SOL     OW 3411   3.024   7.245   0.261  0.5919 -0.3687  0.0525
 1078SOL    HW1 3412   2.964   7.305   0.207  0.5726 -1.3089 -1.0183
 1078SOL    HW2 3413   2.982   7.226   0.349 -0.9386 -1.3318 -0.8315
 1079SOL     OW 3414   8.860   2.733   5.029  0.0400  0.1045 -0.8373
 1079SOL    HW1 3415   8.893   2.800   4.962 -0.1112  0.4060 -0.6084
 1079SOL    HW2 3416   8.810   2.780   5.102  0.5716 -0.1791 -0.2849
 1080SOL     OW 3417   6.299   0.756   3.216 -0.3197 -0.4431 -0.4205
 1080SOL    HW1 3418   6.213   0.715   3.245 -1.4337  0.5711 -2.1553
 1080SOL    HW2 3419   6.282   0.844   3.172  1.9822  2.3108  3.5189
 1081SOL     OW 3420   7.465   2.434   6.347 -0.0612 -0.1102  0.3709
 1081SOL    HW1 3421   7.434   2.436   6.442  0.1582  0.9904  0.4309
 1081SOL    HW2 3422   7.546   2.491   6.337  2.0144 -2.8438  0.2119
 1082SOL     OW 3423   2.818   1.039   2.853  0.4053 -0.2416  0.0745
 1082SOL    HW1 3424   2.864   1.126   2.833 -0.3416 -0.4147 -2.9300
 1082SOL    HW2 3425   2.880   0.963   2.833  0.3416 -0.4226  0.5610
 1083SOL     OW 3426   6.681   4.729   0.192 -0.1907 -0.0007 -0.1748
 1083SOL    HW1 3427   6.725   4.674   0.120 -1.6467 -0.9478 -0.3796
 1083SOL    HW2 3428   6.586   4.748   0.167 -0.3408  0.7767  0.9053
 1084SOL     OW 3429   6.519   2.523   6.017 -0.2146  0.1308  0.3826
 1084SOL    HW1 3430   6.572   2.607   6.005  0.3041 -0.4615 -1.9472
 1084SOL    HW2 3431   6.551   2.454   5.952 -3.7163 -0.3286 -1.0553
 1085SOL     OW 3432   5.340   6.904   7.852 -0.0892 -0.0456 -0.5806
 1085SOL    HW1 3433   5.341   6.996   7.812  2.8616  1.1610  1.8056
 1085SOL    HW2 3434   5.270   6.899   7.923 -0.7739  0.0925 -1.2397
 1086SOL     OW 3435   8.016   5.010   7.105 -0.0748 -0.0951 -0.4730
 1086SOL    HW1 3436   7.990   5.042   7.196 -0.4524 -0.4317 -0.4585
 1086SOL    HW2 3437   8.065   5.082   7.057  0.4346 -0.0358  0.1240
 1087SOL     OW 3438   4.320   0.375   5.930 -0.2215  0.3723 -0.2522
 1087SOL    HW1 3439   4.413   0.406   5.909  0.1809 -0.0855  0.7686
 1087SOL    HW2 3440   4.264   0.454   5.956  0.1652  0.5262  0.1207
 1088SOL     OW 3441   0.400   6.478   3.251 -0.5645 -0.6158 -0.1719
 1088SOL    HW1 3442   0.465   6.457   3.178 -0.6566  0.7898 -0.6979
 1088SOL    HW2 3443   0.428   6.433   3.335  2.2650  1.4842  0.1679
 1089SOL     OW 3444   1.084   2.118   8.062  0.1538 -0.4010  0.2303
 1089SOL    HW1 3445   1.111   2.208   8.030  3.4009 -0.6940  1.7390
 1089SOL    HW2 3446   1.032   2.127   8.147  1.1870  0.0565  0.8255
 1090SOL     OW 3447   0.109   2.434   0.105  0.3557 -0.8134  0.0312
 1090SOL    HW1 3448   0.190   2.486   0.080 -0.3548  0.5138  0.3986
 1090SOL    HW2 3449   0.124   2.389   0.193 -0.1004  1.3920  1.3181
 1091SOL     OW 3450   3.085   5.901   7.631 -0.0220  0.1723 -0.2866
 1091SOL    HW1 3451   3.132   5.846   7.700  1.0819 -1.2195 -2.0802
 1091SOL    HW2 3452   3.126   5.993   7.629 -0.1437  0.2768  0.9288
 1092SOL     OW 3453   4.464   6.165   5.604 -0.6364  0.0028 -0.6417
 1092SOL    HW1 3454   4.517   6.144   5.686  0.1435 -1.1411 -1.4146
 1092SOL    HW2 3455   4.510   6.128   5.523 -0.3583  2.7762 -1.8822
 1093SOL     OW 3456   1.172   7.589   3.867  0.0706  0.1341  0.1835
 1093SOL    HW1 3457   1.186   7.506   3.813 -1.3616  0.0201 -0.0602
 1093SOL    HW2 3458   1.251   7.604   3.926  1.5144  0.0466 -1.6402
 1094SOL     OW 3459   5.029   7.030   4.412  0.0901  0.8189 -0.0790
 1094SOL    HW1 3460   4.959   7.099   4.396 -0.6664  0.8796  2.8338
 1094SOL    HW2 3461   4.985   6.944   4.439  1.1017  0.5147  0.6627
 1095SOL     OW 3462   7.999   5.198   4.430 -0.0005  0.0133  0.1886
 1095SOL    HW1 3463   8.050   5.112   4.432  1.9083  1.0566 -0.7909
 1095SOL    HW2 3464   7.981   5.229   4.523  0.3975 -0.8207  0.5501
 1096SOL     OW 3465   3.985   8.851   3.999 -0.6300 -0.3184 -0.7574
 1096SOL    HW1 3466   3.968   8.841   4.097  1.9129  1.3003 -0.0437
 1096SOL    HW2 3467   3.899   8.841   3.949 -2.5278  1.5254  1.8540
 1097SOL     OW 3468   0.936   7.458   2.032 -0.1799 -0.1051 -0.0454
 1097SOL    HW1 3469   0.948   7.543   1.980  0.6883  0.4316  0.9752
 1097SOL    HW2 3470   0.963   7.380   1.976  1.6662  0.5305 -0.1194
 1098SOL     OW 3471   2.054   4.651   4.105 -0.1268 -0.3922  0.7078
 1098SOL    HW1 3472   2.093   4.734   4.066 -2.9375  0.8393  0.2246
 1098SOL    HW2 3473   2.094   4.634   4.195  0.7291  1.3298  0.6903
 1099SOL     OW 3474   6.103   6.235   3.146 -0.1973  0.4171 -0.4692
 1099SOL    HW1 3475   6.009   6.266   3.133 -0.8119 -1.4415 -0.7772
 1099SOL    HW2 3476   6.112   6.140   3.116  1.6896  0.4072 -0.0535
 1100SOL     OW 3477   1.817   8.644   1.733 -0.4781  0.3408 -0.0451
 1100SOL    HW1 3478   1.909   8.670   1.701  0.0531 -1.3115  0.0409
 1100SOL    HW2 3479   1.801   8.548   1.711 -1.3354  0.0021  1.9026
 1101SOL     OW 3480   8.271   1.865   6.934  0.3513  0.7694 -0.6254
 1101SOL    HW1 3481   8.263   1.964   6.939  2.0654  0.8966  0.3689
 1101SOL    HW2 3482   8.329   1.832   7.010 -0.4772 -1.0232 -0.7129
 1102SOL     OW 3483   4.787   1.386   1.309  0.4732 -0.5085  0.1378
 1102SOL    HW1 3484   4.756   1.453   1.376  1.0737 -1.2248  1.1603
 1102SOL    HW2 3485   4.714   1.368   1.244 -0.0814  0.2914  0.5228
 1103SOL     OW 3486   7.025   2.658   8.063  0.1439  0.1250  0.3058
 1103SOL    HW1 3487   7.095   2.654   7.992  0.5984  2.0078  0.5711
 1103SOL    HW2 3488   6.982   2.569   8.074  0.7533 -0.4464 -1.6231
 1104SOL     OW 3489   6.557   0.250   0.617  0.1233 -0.3114 -1.0517
 1104SOL    HW1 3490   6.572   0.295   0.705  0.5612 -2.2269 -0.0938
 1104SOL    HW2 3491   6.469   0.278   0.580  0.2895  1.1344 -0.3982
 1105SOL     OW 3492   4.054   0.874   0.469 -0.0351 -0.1330  0.4598
 1105SOL    HW1 3493   4.042   0.960   0.518  0.3767 -0.6401  1.4901
 1105SOL    HW2 3494   3.965   0.842   0.436 -0.1013  1.0145 -0.5449
 1106SOL     OW 3495   4.982   5.497   1.944  0.5671  0.2178  0.4098
 1106SOL    HW1 3496   5.009   5.445   1.863  0.1667 -0.9239  0.9738
 1106SOL    HW2 3497   5.062   5.543   1.982  0.9310  0.0605 -0.1524
 1107SOL     OW 3498   6.022   4.298   4.636 -0.3239 -0.0295  0.8395
 1107SOL    HW1 3499   5.968   4.233   4.583 -1.9495  1.0148  1.1457
 1107SOL    HW2 3500   5.963   4.344   4.702  0.9820  1.0707  1.2809
 1108SOL     OW 3501   6.006   1.753   0.821 -0.1362 -0.1282  0.1168
 1108SOL    HW1 3502   5.941   1.826   0.839  1.0917  1.0690 -0.1412
 1108SOL    HW2 3503   6.061   1.775   0.740  1.0869 -0.7324  0.7476
 1109SOL     OW 3504   3.627   0.808   0.870 -0.5071 -0.3274 -0.0751
 1109SOL    HW1 3505   3.627   0.711   0.847  0.4268 -0.4888  0.5583
 1109SOL    HW2 3506   3.585   0.860   0.795 -0.5724 -1.1654 -0.6336
 1110SOL     OW 3507   6.149   5.264   6.136 -0.3437  0.0980 -0.6004
 1110SOL    HW1 3508   6.062   5.262   6.087 -0.5349  1.5905 -0.3880
 1110SOL    HW2 3509   6.133   5.298   6.229  0.5823  1.4572 -0.9041
 1111SOL     OW 3510   0.018   3.636   8.744  0.1095  0.0141  0.5142
 1111SOL    HW1 3511  -0.023   3.548   8.720 -0.5571  0.3634  0.3550
 1111SOL    HW2 3512   0.109   3.642   8.704 -0.0613 -0.3786  0.0597
 1112SOL     OW 3513   8.542   7.773   8.259 -0.4044 -0.2135  0.3857
 1112SOL    HW1 3514   8.595   7.766   8.175  0.3574 -0.7190  0.9023
 1112SOL    HW2 3515   8.458   7.719   8.250  0.9036 -2.4198  0.8751
 1113SOL     OW 3516   3.058   7.873   5.645 -0.2060 -0.4964 -0.1601
 1113SOL    HW1 3517   3.028   7.836   5.733 -0.3548 -1.3900 -0.5760
 1113SOL    HW2 3518   3.136   7.820   5.611  0.9954  0.9257  0.2385
 1114SOL     OW 3519   7.639   1.725   6.508 -0.0683  0.2265  0.0154
 1114SOL    HW1 3520   7.574   1.801   6.507  1.0445  1.2511  1.2845
 1114SOL    HW2 3521   7.612   1.656   6.442 -2.7033  0.3892  0.8327
 1115SOL     OW 3522   3.096   2.920   8.481 -0.2291  0.1498 -0.0739
 1115SOL    HW1 3523   3.040   2.884   8.406  0.5946 -0.3547 -0.4628
 1115SOL    HW2 3524   3.042   2.986   8.533 -0.4810  1.3583 -1.7685
 1116SOL     OW 3525   4.911   3.401   2.915  0.6175  0.2061  0.1024
 1116SOL    HW1 3526   4.986   3.374   2.975  0.8576 -0.3275 -0.4336
 1116SOL    HW2 3527   4.947   3.445   2.833  0.4079 -0.9370 -0.6193
 1117SOL     OW 3528   5.179   6.479   7.108  0.0265 -0.2113 -0.3158
 1117SOL    HW1 3529   5.223   6.392   7.132  1.2595  0.3549 -0.4267
 1117SOL    HW2 3530   5.106   6.499   7.173  0.4721 -0.7952  0.3792
 1118SOL     OW 3531   0.381   5.498   6.982 -0.2724  0.7298  0.2410
 1118SOL    HW1 3532   0.341   5.519   7.072 -3.0579  1.8057 -1.1374
 1118SOL    HW2 3533   0.405   5.401   6.979 -2.6314  0.0353  1.3293
 1119SOL     OW 3534   1.249   5.980   8.129 -0.7701  0.0439 -0.3835
 1119SOL    HW1 3535   1.258   5.942   8.221 -2.5738  0.5566  0.0430
 1119SOL    HW2 3536   1.296   5.921   8.063 -0.7964 -1.1632  0.6580
 1120SOL     OW 3537   2.475   0.600   1.056  0.2506 -0.4344 -0.3822
 1120SOL    HW1 3538   2.455   0.563   0.965  0.1091 -2.4036  0.4034
 1120SOL    HW2 3539   2.565   0.568   1.086 -1.1901 -2.9603  1.6394
 1121SOL     OW 3540   4.757   5.160   7.272  0.0719  0.3453 -0.0075
 1121SOL    HW1 3541   4.832   5.168   7.206  0.7034  1.5182  0.8107
 1121SOL    HW2 3542   4.692   5.234   7.257 -0.1933  0.1522  0.1800
 1122SOL     OW 3543   7.078   6.608   2.561  0.4671 -0.3923  0.1346
 1122SOL    HW1 3544   7.041   6.673   2.628 -0.2324 -0.8113  0.1664
 1122SOL    HW2 3545   7.002   6.559   2.518  0.9922 -1.1527  0.0721
 1123SOL     OW 3546   7.706   6.320   5.621 -0.4281 -0.2377  0.4464
 1123SOL    HW1 3547   7.753   6.234   5.604 -0.4194 -0.2514  0.5415
 1123SOL    HW2 3548   7.698   6.335   5.719 -0.3815 -0.1036  0.4304
 1124SOL     OW 3549   1.994   0.279   8.795 -0.0857 -0.2103  0.1002
 1124SOL    HW1 3550   1.941   0.203   8.829  1.6527 -1.1805  0.7851
 1124SOL    HW2 3551   2.084   0.246   8.765  0.3002  1.4003 -0.6198
 1125SOL     OW 3552   7.256   6.917   7.741  0.0736 -0.0240 -0.2961
 1125SOL    HW1 3553   7.313   6.862   7.801 -3.1543 -2.5842  0.7728
 1125SOL    HW2 3554   7.176   6.950   7.792 -1.1571  0.4480 -2.4091
 1126SOL     OW 3555   5.167   8.586   7.794  0.2793  0.2720  0.0287
 1126SOL    HW1 3556   5.094   8.611   7.731  0.0171 -0.5178  0.0132
 1126SOL    HW2 3557   5.132   8.587   7.888  0.2104 -0.2561  0.0075
 1127SOL     OW 3558   6.695   6.255   6.794 -0.1507 -0.0741  0.0036
 1127SOL    HW1 3559   6.782   6.282   6.835 -0.0950 -0.4029  0.0972
 1127SOL    HW2 3560   6.625   6.322   6.819  0.0749  0.1952 -0.0789
 1128SOL     OW 3561   0.242   8.689   7.679  0.1964  0.1620  0.1805
 1128SOL    HW1 3562   0.252   8.652   7.772 -0.0919  2.9218  1.4097
 1128SOL    HW2 3563   0.186   8.626   7.625 -0.4893 -1.0706  2.1816
 1129SOL     OW 3564   2.388   3.069   7.077 -0.6641  1.1214  0.0991
 1129SOL    HW1 3565   2.415   3.072   7.173  0.5461 -2.1073 -0.0397
 1129SOL    HW2 3566   2.468   3.050   7.020 -2.1154 -2.7996 -0.9007
 1130SOL     OW 3567   7.496   2.807   5.926 -0.2835  0.4792 -0.0267
 1130SOL    HW1 3568   7.498   2.887   5.986 -2.1359  0.7558 -0.2717
 1130SOL    HW2 3569   7.580   2.754   5.938 -0.3734  0.7811  2.4194
 1131SOL     OW 3570   8.577   2.363   8.048 -0.1182  0.5457 -0.3787
 1131SOL    HW1 3571   8.563   2.415   7.963  0.7679  0.5768 -0.5107
 1131SOL    HW2 3572   8.615   2.273   8.026 -1.9341 -0.3082 -0.1745
 1132SOL     OW 3573   0.647   3.039   1.038 -0.1233 -0.2397 -0.3484
 1132SOL    HW1 3574   0.735   2.998   1.063  0.3332  0.6958 -0.3628
 1132SOL    HW2 3575   0.647   3.061   0.941 -0.9809 -1.6564 -0.6922
 1133SOL     OW 3576   0.291   1.879   2.433  0.0338  0.4278  0.4444
 1133SOL    HW1 3577   0.195   1.862   2.454  0.0522  1.1219  1.1210
 1133SOL    HW2 3578   0.313   1.840   2.343 -1.2429  1.4245 -0.3420
 1134SOL     OW 3579   4.435   5.608   3.732 -0.5843  0.1423  0.3690
 1134SOL    HW1 3580   4.525   5.653   3.732 -0.0447 -0.8257 -1.5545
 1134SOL    HW2 3581   4.438   5.529   3.794  0.0892 -0.2079 -0.0922
 1135SOL     OW 3582   3.599   5.189   8.647  0.1184 -0.7148  0.2586
 1135SOL    HW1 3583   3.676   5.234   8.692 -0.7875  1.8008 -0.4874
 1135SOL    HW2 3584   3.632   5.141   8.566  1.0893 -1.0154  0.8125
 1136SOL     OW 3585   7.462   5.796   3.241  0.1542  0.5502 -0.4581
 1136SOL    HW1 3586   7.511   5.711   3.261  0.8290  0.7134 -1.3567
 1136SOL    HW2 3587   7.411   5.825   3.322  1.8941  0.6190  0.6695
 1137SOL     OW 3588   7.974   8.389   0.462  0.2304  0.0352  0.2873
 1137SOL    HW1 3589   7.973   8.356   0.367 -0.1399 -1.8999  0.9278
 1137SOL    HW2 3590   7.882   8.414   0.489  0.1262 -0.5832  0.5152
 1138SOL     OW 3591   5.975   1.535   0.367  0.6141  0.4345 -0.3298
 1138SOL    HW1 3592   6.050   1.597   0.343 -0.0982  0.8270 -1.7055
 1138SOL    HW2 3593   6.010   1.461   0.424  2.5141 -0.5560 -2.5996
 1139SOL     OW 3594   0.709   6.074   1.513  0.0798 -0.1544  0.1897
 1139SOL    HW1 3595   0.680   5.979   1.523 -1.3473  0.0331 -1.5488
 1139SOL    HW2 3596   0.799   6.087   1.555  0.6269 -2.4277 -0.1588
 1140SOL     OW 3597   0.077   0.126   1.900  0.1609 -0.7133  0.2078
 1140SOL    HW1 3598   0.119   0.214   1.921  0.2811 -0.7047 -0.0559
 1140SOL    HW2 3599   0.101   0.100   1.806  2.9410 -2.6064  1.3098
 1141SOL     OW 3600   4.091   6.952   0.744 -0.0897  0.2601 -0.5752
 1141SOL    HW1 3601   4.103   6.957   0.843 -2.0770  1.3537 -0.3437
 1141SOL    HW2 3602   4.173   6.989   0.699 -0.1565  2.1466  0.7337
 1142SOL     OW 3603   3.289   0.731   7.219 -0.2262  0.0746 -0.0232
 1142SOL    HW1 3604   3.281   0.660   7.289 -0.8513  1.1909  1.0730
 1142SOL    HW2 3605   3.211   0.793   7.225  0.4598  1.0421 -0.7415
 1143SOL     OW 3606   1.221   5.115   2.543  0.0935 -0.0217 -0.0142
 1143SOL    HW1 3607   1.157   5.093   2.469 -0.4304 -0.6627  0.6223
 1143SOL    HW2 3608   1.303   5.058   2.534  1.8056  2.4838 -2.3112
 1144SOL     OW 3609   7.846   5.668   6.273  0.2716 -0.0794  0.0581
 1144SOL    HW1 3610   7.816   5.653   6.179  0.6905 -1.1667  0.0760
 1144SOL    HW2 3611   7.812   5.756   6.306 -0.3039  0.0821 -0.9329
 1145SOL     OW 3612   2.373   5.803   7.206 -0.1298  0.5855 -0.3141
 1145SOL    HW1 3613   2.452   5.860   7.180  0.1017 -0.9192 -3.4269
 1145SOL    HW2 3614   2.330   5.767   7.123 -3.4604  0.4191  1.3436
 1146SOL     OW 3615   7.384   4.522   4.407 -0.2773  0.2670 -0.3956
 1146SOL    HW1 3616   7.366   4.613   4.445 -0.7807  0.2461 -0.5808
 1146SOL    HW2 3617   7.470   4.524   4.356 -1.8587  1.5179 -3.2463
 1147SOL     OW 3618   0.285   6.747   0.248 -0.3097 -0.3624 -0.5062
 1147SOL    HW1 3619   0.312   6.669   0.192 -1.7978 -0.7393 -0.7434
 1147SOL    HW2 3620   0.270   6.717   0.342 -1.6610 -0.5601 -0.7623
 1148SOL     OW 3621   4.347   1.351   6.883  0.5451 -0.5246  0.3234
 1148SOL    HW1 3622   4.281   1.309   6.820  0.9963 -1.5239  0.4930
 1148SOL    HW2 3623   4.343   1.304   6.971 -1.3485  1.9744  1.7127
 1149SOL     OW 3624   1.663   5.205   5.878  0.0350 -0.0821 -0.0413
 1149SOL    HW1 3625   1.738   5.173   5.935 -0.4818 -0.1795  0.5997
 1149SOL    HW2 3626   1.583   5.146   5.893 -1.3304  2.1243  2.0649
 1150SOL     OW 3627   0.273   6.318   7.948  0.0852  0.1006 -0.2114
 1150SOL    HW1 3628   0.347   6.383   7.935 -0.5863  0.9760  0.2299
 1150SOL    HW2 3629   0.192   6.349   7.899 -0.5164  0.0809  0.7284
 1151SOL     OW 3630   5.589   0.394   3.250 -0.0358  0.2477  0.0405
 1151SOL    HW1 3631   5.677   0.347   3.243 -0.1698  0.1131 -0.9095
 1151SOL    HW2 3632   5.539   0.384   3.164 -1.4515 -0.5856  0.9222
 1152SOL     OW 3633   6.670   6.433   1.143  0.7882 -0.2845 -0.0346
 1152SOL    HW1 3634   6.740   6.463   1.207  0.5163 -0.8857  0.5551
 1152SOL    HW2 3635   6.627   6.350   1.177 -1.4789  1.0277  0.5574
 1153SOL     OW 3636   4.959   4.060   3.591 -0.0105  0.0374  0.2007
 1153SOL    HW1 3637   4.867   4.039   3.626 -0.2332  1.2974  0.4048
 1153SOL    HW2 3638   4.961   4.042   3.493 -0.1902 -0.8867  0.3523
 1154SOL     OW 3639   3.798   3.745   6.820 -0.1144 -0.0485 -0.5963
 1154SOL    HW1 3640   3.800   3.770   6.917 -0.2563  0.3932 -0.7064
 1154SOL    HW2 3641   3.864   3.671   6.803  0.1788  0.1304 -0.2347
 1155SOL     OW 3642   2.156   7.758   7.564  0.2369 -0.4910 -0.2781
 1155SOL    HW1 3643   2.220   7.716   7.501 -0.4353 -1.4144 -0.3626
 1155SOL    HW2 3644   2.118   7.689   7.625  0.7740  0.3590  1.0732
 1156SOL     OW 3645   4.575   8.574   2.892 -0.8277  0.7178  0.2201
 1156SOL    HW1 3646   4.551   8.645   2.826 -1.1299  0.0986 -0.3413
 1156SOL    HW2 3647   4.494   8.522   2.917 -0.1265 -1.5660 -1.9074
 1157SOL     OW 3648   4.050   7.365   4.754 -0.4885 -0.1107  0.0746
 1157SOL    HW1 3649   4.118   7.359   4.681 -0.7471  0.0758 -0.1832
 1157SOL    HW2 3650   4.035   7.274   4.793  2.7744  0.2949  2.7972
 1158SOL     OW 3651   5.181   1.136   0.075  0.5373  0.0927 -0.2955
 1158SOL    HW1 3652   5.107   1.197   0.046  1.1848  0.8941 -0.2875
 1158SOL    HW2 3653   5.269   1.178   0.054  1.0117 -0.2272  0.9480
 1159SOL     OW 3654   7.738   6.994   6.617  0.6428  0.2719 -0.0068
 1159SOL    HW1 3655   7.643   6.985   6.589  0.6913  1.4502 -0.6441
 1159SOL    HW2 3656   7.746   6.978   6.716  0.0912 -1.5936 -0.2325
 1160SOL     OW 3657   1.819   3.145   3.502 -0.8080 -0.8384  0.1629
 1160SOL    HW1 3658   1.783   3.087   3.429 -1.7027 -0.9968  0.7125
 1160SOL    HW2 3659   1.759   3.140   3.582 -1.3790  1.4697 -0.0437
 1161SOL     OW 3660   6.641   8.577   1.752 -0.1849  0.6446  0.2601
 1161SOL    HW1 3661   6.622   8.520   1.672 -0.0337 -1.3130  1.5537
 1161SOL    HW2 3662   6.556   8.622   1.781 -0.4552  0.5561 -0.3640
 1162SOL     OW 3663   4.800   7.004   5.743 -0.2176  0.1273 -0.3173
 1162SOL    HW1 3664   4.892   6.969   5.727 -0.6369 -0.8713 -0.6532
 1162SOL    HW2 3665   4.802   7.104   5.743  0.8575  0.1199 -0.3353
 1163SOL     OW 3666   8.686   3.243   1.133 -0.3975  0.3585 -0.1445
 1163SOL    HW1 3667   8.674   3.331   1.086  0.2859 -0.2022 -1.4302
 1163SOL    HW2 3668   8.632   3.173   1.086 -0.1084 -0.1227  0.2332
 1164SOL     OW 3669   1.766   7.572   7.604  0.4696 -0.0503  0.0193
 1164SOL    HW1 3670   1.755   7.631   7.524 -1.1037 -1.9268 -1.2374
 1164SOL    HW2 3671   1.689   7.508   7.610  2.4443 -2.5238  0.8064
 1165SOL     OW 3672   4.253   4.185   8.210 -0.0070  0.5970  0.3481
 1165SOL    HW1 3673   4.325   4.119   8.230  1.0828  1.4261 -0.6750
 1165SOL    HW2 3674   4.173   4.137   8.173  0.5521 -0.1979  0.1453
 1166SOL     OW 3675   8.032   0.123   2.930  0.1486 -0.1461  0.0312
 1166SOL    HW1 3676   8.024   0.203   2.870  1.9645  0.5195  0.5854
 1166SOL    HW2 3677   7.942   0.095   2.962 -0.4820  2.2229  0.4957
 1167SOL     OW 3678   7.834   7.327   3.157  0.3524 -0.2108  0.1216
 1167SOL    HW1 3679   7.872   7.269   3.085  0.4222  0.0376 -0.0416
 1167SOL    HW2 3680   7.742   7.296   3.181 -0.6955  1.2153 -1.8174
 1168SOL     OW 3681   8.237   3.224   2.579 -0.7236 -0.6068 -0.2941
 1168SOL    HW1 3682   8.231   3.281   2.661  0.6759 -0.2856 -0.3788
 1168SOL    HW2 3683   8.208   3.276   2.499  4.4773  1.7123 -1.0824
 1169SOL     OW 3684   2.267   8.666   6.149 -0.2711  0.6257  0.2648
 1169SOL    HW1 3685   2.356   8.656   6.105 -0.4207  0.0526  0.0894
 1169SOL    HW2 3686   2.262   8.604   6.228  0.0762  1.7876  1.2425
 1170SOL     OW 3687   3.117   4.822   0.741  0.7170  0.0852  0.2333
 1170SOL    HW1 3688   3.175   4.791   0.666  2.5341 -0.7500  1.9014
 1170SOL    HW2 3689   3.050   4.751   0.763  0.2226  0.3052 -0.4997
 1171SOL     OW 3690   5.740   4.111   2.359 -0.8413  0.1469 -0.0382
 1171SOL    HW1 3691   5.651   4.097   2.316  0.1499 -1.8070 -1.5823
 1171SOL    HW2 3692   5.810   4.123   2.289  0.3646 -0.0046  1.1058
 1172SOL     OW 3693   7.825   8.479   1.962  0.2192  0.5720  0.0107
 1172SOL    HW1 3694   7.787   8.512   1.876  0.1454  0.4072 -0.0198
 1172SOL    HW2 3695   7.814   8.548   2.033 -0.1298  0.5247  0.0009
 1173SOL     OW 3696   7.242   2.965   3.344  0.2673 -0.5341  0.1796
 1173SOL    HW1 3697   7.279   2.945   3.434 -1.6715 -1.6475  0.7845
 1173SOL    HW2 3698   7.224   2.879   3.296  1.0888  0.0390 -1.2259
 1174SOL     OW 3699   2.604   7.086   4.740  0.1288  0.0799 -0.2609
 1174SOL    HW1 3700   2.577   7.027   4.816  2.3107  0.2596  0.7410
 1174SOL    HW2 3701   2.635   7.030   4.663  0.9913 -0.0972  0.2103
 1175SOL     OW 3702   5.462   2.775   6.757 -0.1406  0.3819 -0.1593
 1175SOL    HW1 3703   5.461   2.741   6.851  0.0829  0.5657 -0.0902
 1175SOL    HW2 3704   5.512   2.862   6.753 -0.6421  0.6609 -0.3523
 1176SOL     OW 3705   7.088   0.739   1.898  0.0300 -0.1566 -0.6476
 1176SOL    HW1 3706   7.116   0.796   1.975  3.5269 -1.4320 -0.7942
 1176SOL    HW2 3707   7.047   0.654   1.932  0.4386 -0.1858 -0.2192
 1177SOL     OW 3708   5.093   7.123   7.886 -0.3459  0.3509 -0.1106
 1177SOL    HW1 3709   5.017   7.135   7.822  0.3709 -0.1986 -1.0981
 1177SOL    HW2 3710   5.177   7.109   7.834  0.4789  1.2271  0.9660
 1178SOL     OW 3711   3.647   2.936   0.192 -0.3169  0.6285  0.5647
 1178SOL    HW1 3712   3.626   3.031   0.217 -2.2826 -0.1452  2.2072
 1178SOL    HW2 3713   3.564   2.892   0.158 -0.2049 -1.2436  2.5111
 1179SOL     OW 3714   3.127   0.224   4.201  0.4904  0.0755  0.1686
 1179SOL    HW1 3715   3.144   0.239   4.298 -0.8108 -1.2091  0.6478
 1179SOL    HW2 3716   3.171   0.295   4.147  1.4531  0.6670  1.6799
 1180SOL     OW 3717   5.677   7.839   6.239  0.1795 -0.0137 -0.0032
 1180SOL    HW1 3718   5.774   7.815   6.234  0.2430  0.4665 -1.8979
 1180SOL    HW2 3719   5.634   7.823   6.150 -1.1596  1.0915  0.4036
 1181SOL     OW 3720   7.689   1.311   4.356  0.2987  0.0187 -0.1781
 1181SOL    HW1 3721   7.630   1.373   4.409 -0.6894 -1.9094  1.0901
 1181SOL    HW2 3722   7.646   1.293   4.267 -0.5072 -0.4815  0.2924
 1182SOL     OW 3723   2.829   3.721   8.338  0.1285 -0.5365  0.6220
 1182SOL    HW1 3724   2.775   3.764   8.267  0.0100 -0.9177  0.4773
 1182SOL    HW2 3725   2.844   3.624   8.315  2.5523 -0.0150 -0.3788
 1183SOL     OW 3726   2.610   2.360   0.932  0.1908 -0.4127  0.2743
 1183SOL    HW1 3727   2.564   2.382   0.847  1.3547  1.7093  0.1069
 1183SOL    HW2 3728   2.609   2.440   0.992  1.5081 -1.0717  1.2333
 1184SOL     OW 3729   2.181   8.490   3.071  0.5449  0.1148 -0.0106
 1184SOL    HW1 3730   2.088   8.473   3.037 -0.2432 -0.2067  2.1298
 1184SOL    HW2 3731   2.204   8.587   3.057  0.8655 -0.2564 -2.6414
 1185SOL     OW 3732   5.607   3.621   0.105  0.3317 -0.0824 -0.1798
 1185SOL    HW1 3733   5.512   3.651   0.102  0.7164  1.1264 -1.6001
 1185SOL    HW2 3734   5.650   3.655   0.189  0.3784  2.3349 -1.1042
 1186SOL     OW 3735   6.750   6.220   0.731 -0.0274 -0.1554 -0.5983
 1186SOL    HW1 3736   6.699   6.148   0.778 -0.3733  0.7056  0.3743
 1186SOL    HW2 3737   6.786   6.184   0.645  0.1193 -1.5933  0.0358
 1187SOL     OW 3738   5.476   7.254   6.480 -0.4387  0.2077 -0.2164
 1187SOL    HW1 3739   5.495   7.199   6.561 -1.0353 -0.4927 -0.5287
 1187SOL    HW2 3740   5.378   7.275   6.476 -0.5282 -0.2781 -1.0377
 1188SOL     OW 3741   1.329   3.215   7.688 -0.0567 -0.0158  0.1436
 1188SOL    HW1 3742   1.325   3.159   7.604  0.4910  1.0455 -0.6163
 1188SOL    HW2 3743   1.269   3.294   7.678  0.5787  0.5109  0.4412
 1189SOL     OW 3744   5.113   3.223   1.672  0.1728  0.4618  0.2730
 1189SOL    HW1 3745   5.146   3.252   1.583  2.5084 -0.1768  0.8727
 1189SOL    HW2 3746   5.171   3.261   1.744 -1.3907  0.6079  1.5422
 1190SOL     OW 3747   4.459   1.173   0.376 -0.3301 -0.7750  0.6196
 1190SOL    HW1 3748   4.438   1.124   0.461  0.5760  0.0149  1.3188
 1190SOL    HW2 3749   4.547   1.144   0.341 -0.0311 -0.0455  0.7514
 1191SOL     OW 3750   1.888   2.881   5.216 -0.2944  0.2631 -0.4184
 1191SOL    HW1 3751   1.832   2.949   5.263 -1.8366 -0.8554 -0.5840
 1191SOL    HW2 3752   1.831   2.824   5.157  0.9640 -1.0589 -0.4369
 1192SOL     OW 3753   8.161   7.533   4.937  0.4976 -0.8291  0.1261
 1192SOL    HW1 3754   8.066   7.502   4.940  0.7351 -1.5549  0.2160
 1192SOL    HW2 3755   8.219   7.467   4.984  0.9690 -0.0732  0.6191
 1193SOL     OW 3756   5.290   3.691   8.388  0.0960 -0.0870  0.2316
 1193SOL    HW1 3757   5.386   3.717   8.398 -0.5459  2.2935  0.8030
 1193SOL    HW2 3758   5.280   3.627   8.312  1.9860  0.4814 -0.5404
 1194SOL     OW 3759   8.402   0.703   3.933 -0.6465  0.1298  0.6797
 1194SOL    HW1 3760   8.368   0.678   3.843  0.8776  2.7160 -0.7240
 1194SOL    HW2 3761   8.479   0.644   3.957 -0.2938  0.1908 -0.2687
 1195SOL     OW 3762   0.280   6.373   0.962 -0.5958 -0.0017 -0.5745
 1195SOL    HW1 3763   0.309   6.300   0.899 -2.1375 -1.2730  0.1241
 1195SOL    HW2 3764   0.331   6.365   1.047 -1.1171 -0.5968 -0.3118
 1196SOL     OW 3765   6.104   1.273   4.165 -0.0767  0.3201  0.1353
 1196SOL    HW1 3766   6.037   1.347   4.177 -0.8482 -0.1888 -0.9170
 1196SOL    HW2 3767   6.161   1.292   4.085 -1.9360 -1.3842 -1.7048
 1197SOL     OW 3768   4.699   4.796   0.665  0.2383 -0.2848  0.3468
 1197SOL    HW1 3769   4.608   4.801   0.705 -0.4780 -2.5635 -0.8414
 1197SOL    HW2 3770   4.721   4.701   0.643  1.8211  0.5046 -1.8645
 1198SOL     OW 3771   3.402   7.005   1.553 -0.4209 -0.3583 -0.0866
 1198SOL    HW1 3772   3.417   7.001   1.454 -0.9741 -0.9164 -0.1564
 1198SOL    HW2 3773   3.413   7.100   1.584  2.9256 -0.6188 -0.1276
 1199SOL     OW 3774   4.431   5.861   0.319  0.5956  0.4024  0.2641
 1199SOL    HW1 3775   4.507   5.816   0.365  0.2203 -0.6130 -0.0834
 1199SOL    HW2 3776   4.410   5.813   0.233 -0.7826  0.3219  0.6103
 1200SOL     OW 3777   2.645   2.631   5.469 -0.2743 -0.1256 -0.2374
 1200SOL    HW1 3778   2.599   2.708   5.425 -1.3246 -0.7606 -0.2743
 1200SOL    HW2 3779   2.733   2.614   5.424  0.0121  1.1063 -0.1649
 1201SOL     OW 3780   2.952   3.697   1.897  0.1451  0.0155 -0.1417
 1201SOL    HW1 3781   2.887   3.621   1.906 -1.4394  1.4720  1.2783
 1201SOL    HW2 3782   2.989   3.698   1.804 -1.2472 -1.3444 -0.7568
 1202SOL     OW 3783   8.207   2.854   2.253 -0.3417  0.1977  0.2840
 1202SOL    HW1 3784   8.186   2.951   2.239  0.0631  0.0346 -1.8757
 1202SOL    HW2 3785   8.260   2.843   2.338  0.2124  1.9631  0.2143
 1203SOL     OW 3786   8.744   7.635   8.400 -0.5854 -0.6695  0.4831
 1203SOL    HW1 3787   8.837   7.668   8.385 -0.7324  0.4786  1.8572
 1203SOL    HW2 3788   8.679   7.698   8.359 -0.7935 -1.3429 -0.2624
 1204SOL     OW 3789   3.467   4.562   7.558  0.3383  0.0399  0.6514
 1204SOL    HW1 3790   3.456   4.651   7.602 -0.1585 -0.1607  0.9316
 1204SOL    HW2 3791   3.535   4.509   7.608  0.5108  0.1902  0.5827
 1205SOL     OW 3792   6.115   8.557   6.387 -0.0442  0.4249  0.6500
 1205SOL    HW1 3793   6.170   8.613   6.326  2.0551  0.3567  2.3391
 1205SOL    HW2 3794   6.096   8.469   6.344  1.0046  0.5311 -0.0668
 1206SOL     OW 3795   6.154   8.405   7.013 -0.4757  0.3352  1.1425
 1206SOL    HW1 3796   6.252   8.426   7.020 -0.9439  2.4712  2.3271
 1206SOL    HW2 3797   6.113   8.408   7.104 -1.5291 -1.4328  0.7747
 1207SOL     OW 3798   4.348   6.414   5.659 -0.4561  0.0883 -0.4186
 1207SOL    HW1 3799   4.437   6.375   5.635  0.6691  2.1002  0.2552
 1207SOL    HW2 3800   4.278   6.377   5.598  0.7477 -1.8567 -0.7048
 1208SOL     OW 3801   8.326   5.362   8.767 -0.5087 -0.0752  0.0997
 1208SOL    HW1 3802   8.275   5.338   8.684 -1.2972  0.2547  0.4737
 1208SOL    HW2 3803   8.404   5.302   8.777  1.4622  1.8044 -2.5613
 1209SOL     OW 3804   5.662   7.680   3.837  0.0423 -0.6995 -0.0760
 1209SOL    HW1 3805   5.623   7.756   3.784 -1.5455 -0.9886  0.6422
 1209SOL    HW2 3806   5.619   7.595   3.809 -0.6061 -0.8946  1.4663
 1210SOL     OW 3807   1.059   8.249   8.369  0.8158 -0.0057 -0.0135
 1210SOL    HW1 3808   1.069   8.333   8.315 -2.4981  0.1140 -0.6908
 1210SOL    HW2 3809   1.014   8.271   8.456 -2.7880 -1.2514 -1.3848
 1211SOL     OW 3810   0.657   2.816   7.351 -0.2789  0.7158 -0.4461
 1211SOL    HW1 3811   0.701   2.775   7.430 -1.0628 -1.0997 -0.9021
 1211SOL    HW2 3812   0.720   2.817   7.274  0.4595  2.4164  0.1091
 1212SOL     OW 3813   3.177   7.630   4.322  0.1194 -0.4963  0.1818
 1212SOL    HW1 3814   3.105   7.699   4.313  0.2044 -0.3159  0.8393
 1212SOL    HW2 3815   3.137   7.543   4.350  0.3173  0.0268  2.2394
 1213SOL     OW 3816   5.593   2.344   8.643  0.4746  0.2715  0.1263
 1213SOL    HW1 3817   5.504   2.346   8.688  1.3176 -0.7729  1.9385
 1213SOL    HW2 3818   5.665   2.351   8.712  1.8111  0.2410 -1.2273
 1214SOL     OW 3819   1.963   7.455   1.786 -0.3538  0.4730  0.3308
 1214SOL    HW1 3820   1.901   7.377   1.790  0.0566  0.1702  1.1018
 1214SOL    HW2 3821   2.057   7.422   1.791 -0.1442  0.9609 -0.3208
 1215SOL     OW 3822   1.768   5.949   6.634 -0.0336  0.1029  0.1023
 1215SOL    HW1 3823   1.836   5.897   6.685 -0.7296 -0.1704  0.7678
 1215SOL    HW2 3824   1.678   5.937   6.676 -0.3048  1.3777 -0.0725
 1216SOL     OW 3825   8.499   5.240   1.042  0.1766 -0.0875  0.0627
 1216SOL    HW1 3826   8.524   5.236   0.945  0.2005 -2.5853  0.1015
 1216SOL    HW2 3827   8.580   5.259   1.097  0.3626  0.2681 -0.3283
 1217SOL     OW 3828   3.164   0.401   0.096  0.3422  0.0087 -0.3781
 1217SOL    HW1 3829   3.206   0.411   0.186  1.2752 -0.0166 -0.7883
 1217SOL    HW2 3830   3.229   0.356   0.034 -0.3668 -0.1861 -1.0041
 1218SOL     OW 3831   4.185   1.664   3.834  0.1168 -0.0092 -0.1668
 1218SOL    HW1 3832   4.224   1.603   3.766 -0.6691 -0.0516 -0.5904
 1218SOL    HW2 3833   4.203   1.627   3.926  1.2068  0.0717 -0.3395
 1219SOL     OW 3834   6.670   5.566   0.062 -0.6268 -0.1272 -0.1189
 1219SOL    HW1 3835   6.639   5.506  -0.011  1.2239  0.3534 -1.3598
 1219SOL    HW2 3836   6.764   5.543   0.087 -0.8745  0.3978  1.4068
 1220SOL     OW 3837   4.289   4.644   5.918  0.0796  0.4582  0.4688
 1220SOL    HW1 3838   4.374   4.675   5.961 -0.3950  0.3293  1.5507
 1220SOL    HW2 3839   4.244   4.577   5.978 -1.3321  1.3466  0.4556
 1221SOL     OW 3840   5.665   6.278   8.079 -0.2119  0.0282  0.0124
 1221SOL    HW1 3841   5.629   6.371   8.083  1.3465  0.6961 -0.7258
 1221SOL    HW2 3842   5.764   6.281   8.071 -0.1050 -1.7176  0.3085
 1222SOL     OW 3843   5.356   3.970   1.019 -0.1996 -0.1498  0.0001
 1222SOL    HW1 3844   5.280   4.005   0.964 -1.2641 -1.3380  0.6716
 1222SOL    HW2 3845   5.320   3.929   1.103  0.9530 -2.6751 -0.6534
 1223SOL     OW 3846   1.377   3.138   1.775 -0.3031 -0.0991 -0.7447
 1223SOL    HW1 3847   1.293   3.101   1.734  1.0341 -1.0507 -2.8006
 1223SOL    HW2 3848   1.435   3.062   1.806 -0.0302  0.5306  0.3282
 1224SOL     OW 3849   6.642   1.358   0.268  0.0762  0.3052  0.4766
 1224SOL    HW1 3850   6.546   1.368   0.241  0.1790  0.6933  0.2547
 1224SOL    HW2 3851   6.688   1.446   0.260  0.3028  0.2514  1.1621
 1225SOL     OW 3852   8.153   7.179   8.612 -0.1841 -0.5564 -0.0971
 1225SOL    HW1 3853   8.223   7.248   8.628  0.9331 -1.4502 -0.9863
 1225SOL    HW2 3854   8.109   7.195   8.524 -0.1982 -0.7550 -0.1269
 1226SOL     OW 3855   6.698   6.081   5.112  0.3942  0.0288  0.1703
 1226SOL    HW1 3856   6.721   6.027   5.193 -2.0468 -1.6417 -0.1595
 1226SOL    HW2 3857   6.738   6.038   5.031  1.4437  0.7820  0.2614
 1227SOL     OW 3858   3.344   3.019   3.982 -0.1779 -0.4519  0.2231
 1227SOL    HW1 3859   3.386   3.095   4.032 -0.6559  1.0125 -1.4855
 1227SOL    HW2 3860   3.415   2.960   3.945  0.3145  0.4291 -0.2804
 1228SOL     OW 3861   1.155   8.750   8.199  0.1256 -0.0999  0.7024
 1228SOL    HW1 3862   1.219   8.762   8.124 -0.1150 -1.7162  0.1854
 1228SOL    HW2 3863   1.069   8.796   8.177  0.8608  1.5268  1.1154
 1229SOL     OW 3864   2.755   8.171   1.674 -0.1772  0.7030 -0.3961
 1229SOL    HW1 3865   2.675   8.118   1.646  0.8327 -0.3875 -1.3072
 1229SOL    HW2 3866   2.761   8.173   1.774  1.1288 -3.1444 -0.2594
 1230SOL     OW 3867   4.496   2.358   3.929 -0.0487 -0.6139 -0.0952
 1230SOL    HW1 3868   4.507   2.374   3.830 -1.7488 -0.5155 -0.2922
 1230SOL    HW2 3869   4.572   2.302   3.961 -0.7511 -2.8441 -2.0104
 1231SOL     OW 3870   3.979   2.310   5.445 -0.2154 -0.0767  0.0209
 1231SOL    HW1 3871   3.980   2.342   5.350 -0.7539 -2.2868 -0.7886
 1231SOL    HW2 3872   3.909   2.360   5.496 -1.3200 -0.2582 -1.2749
 1232SOL     OW 3873   1.147   0.657   8.089  0.0824  0.1747  0.7202
 1232SOL    HW1 3874   1.192   0.628   8.004  0.2976 -0.3665  1.0086
 1232SOL    HW2 3875   1.117   0.576   8.140 -3.0488  0.5231 -0.3904
 1233SOL     OW 3876   7.918   3.277   7.134 -0.2604 -0.3030 -0.1856
 1233SOL    HW1 3877   7.904   3.282   7.035  0.7977 -2.0458 -0.4681
 1233SOL    HW2 3878   7.967   3.358   7.165  1.0436 -0.5619 -1.4324
 1234SOL     OW 3879   6.839   0.906   1.758  0.3377 -0.3405  0.1607
 1234SOL    HW1 3880   6.906   0.908   1.833  2.2830 -1.0244 -1.4749
 1234SOL    HW2 3881   6.788   0.821   1.762  1.4199 -1.0232 -0.0613
 1235SOL     OW 3882   3.614   3.696   1.404  0.1663 -0.2668 -0.1029
 1235SOL    HW1 3883   3.674   3.776   1.410 -0.8582  0.4969  0.2283
 1235SOL    HW2 3884   3.629   3.650   1.317  1.5172 -0.3301  0.1436
 1236SOL     OW 3885   3.200   1.527   8.139 -0.1520 -0.4503 -0.3595
 1236SOL    HW1 3886   3.138   1.606   8.139  0.5708  0.1410 -1.1948
 1236SOL    HW2 3887   3.233   1.511   8.046 -1.3017 -2.5787 -0.4678
 1237SOL     OW 3888   1.066   4.744   4.146 -0.0334 -0.4608  0.1072
 1237SOL    HW1 3889   1.091   4.672   4.080 -1.0032  1.1924 -2.1939
 1237SOL    HW2 3890   1.148   4.794   4.172  0.1162  0.3306 -1.7305
 1238SOL     OW 3891   1.299   5.926   8.403 -0.1739 -0.0496 -0.4336
 1238SOL    HW1 3892   1.326   5.838   8.442 -0.6332 -0.2240 -0.5047
 1238SOL    HW2 3893   1.380   5.974   8.371  0.2726  0.2747  1.0901
 1239SOL     OW 3894   6.253   2.203   1.463 -0.1717 -0.2888  0.4804
 1239SOL    HW1 3895   6.229   2.300   1.462  0.7780  0.0034  1.9594
 1239SOL    HW2 3896   6.275   2.176   1.557 -1.2389 -2.1550  0.2399
 1240SOL     OW 3897   7.624   0.687   0.380 -0.1597  0.3052  0.4754
 1240SOL    HW1 3898   7.560   0.610   0.381 -0.4351  0.4979 -0.5831
 1240SOL    HW2 3899   7.664   0.695   0.289  0.9131  0.5697  0.9553
 1241SOL     OW 3900   2.252   0.768   8.422  0.0850 -0.0069  0.0139
 1241SOL    HW1 3901   2.208   0.730   8.503  2.3553 -0.0634  1.3010
 1241SOL    HW2 3902   2.317   0.701   8.385  0.7161  0.8580 -0.4843
 1242SOL     OW 3903   3.894   6.136   0.756  0.1258 -0.2370 -0.2281
 1242SOL    HW1 3904   3.939   6.070   0.816 -0.9017  0.1290  0.9787
 1242SOL    HW2 3905   3.802   6.104   0.734 -1.4824  1.9644  2.6189
 1243SOL     OW 3906   2.615   6.054   4.888  0.1703  0.0252  0.1448
 1243SOL    HW1 3907   2.656   6.019   4.972  0.7847  1.0539  0.2846
 1243SOL    HW2 3908   2.683   6.052   4.815 -0.2279 -0.4323 -0.2221
 1244SOL     OW 3909   3.560   7.767   0.344  0.1484 -0.2717  0.6379
 1244SOL    HW1 3910   3.469   7.730   0.328  0.6670 -0.8886 -1.1916
 1244SOL    HW2 3911   3.605   7.716   0.417  0.0170 -1.8149 -0.3238
 1245SOL     OW 3912   7.378   8.547   4.737  0.3125  0.3385  0.5466
 1245SOL    HW1 3913   7.400   8.528   4.833 -1.2757  0.3174  0.9436
 1245SOL    HW2 3914   7.386   8.464   4.683  2.6191  0.6480  0.3436
 1246SOL     OW 3915   8.074   3.882   0.650  0.4525 -0.5858 -0.4375
 1246SOL    HW1 3916   8.125   3.824   0.714 -1.2045 -0.1535  1.3836
 1246SOL    HW2 3917   8.137   3.943   0.602  2.0735 -2.7836 -1.2950
 1247SOL     OW 3918   3.632   1.980   4.551  0.2697 -0.2054 -0.1733
 1247SOL    HW1 3919   3.574   1.926   4.490 -0.3419 -0.1898  0.3819
 1247SOL    HW2 3920   3.722   1.939   4.557 -0.8597 -2.6264  2.1570
 1248SOL     OW 3921   2.795   8.479   4.224  0.1270  0.6160  0.0198
 1248SOL    HW1 3922   2.890   8.449   4.216 -0.3816 -1.3583  0.7105
 1248SOL    HW2 3923   2.756   8.492   4.133 -0.5317 -4.2697 -0.6711
 1249SOL     OW 3924   2.542   0.914   6.908  0.0530  0.2653  0.5656
 1249SOL    HW1 3925   2.455   0.919   6.859  0.3972  0.0277 -0.0772
 1249SOL    HW2 3926   2.549   0.826   6.955  0.0649  0.1774  0.3987
 1250SOL     OW 3927   2.373   7.851   1.797  0.0606 -0.4495  0.6665
 1250SOL    HW1 3928   2.316   7.794   1.738  1.4813 -1.4682  0.2189
 1250SOL    HW2 3929   2.456   7.877   1.748 -0.1315  1.2946  1.1889
 1251SOL     OW 3930   3.852   0.364   5.385  0.7175  0.1558 -0.0332
 1251SOL    HW1 3931   3.825   0.460   5.390  0.4394  0.0762  0.0045
 1251SOL    HW2 3932   3.931   0.354   5.325  0.3204  0.3181 -0.5895
 1252SOL     OW 3933   0.217   7.521   0.007 -0.2908 -0.2732  0.0229
 1252SOL    HW1 3934   0.167   7.576  -0.059  0.1448 -0.1110 -0.1790
 1252SOL    HW2 3935   0.182   7.427   0.007 -0.2263 -0.2983 -0.5067
 1253SOL     OW 3936   7.959   2.038   5.059  0.3267  0.2527 -0.1961
 1253SOL    HW1 3937   7.920   2.009   4.972  1.1545 -1.2763 -0.0887
 1253SOL    HW2 3938   7.888   2.077   5.117 -0.6565 -0.7087 -0.7290
 1254SOL     OW 3939   5.764   2.418   6.061  0.0777  0.0358  0.1993
 1254SOL    HW1 3940   5.835   2.477   6.022 -1.0842  1.6163  0.3321
 1254SOL    HW2 3941   5.733   2.354   5.991  0.0294  0.9041 -0.6052
 1255SOL     OW 3942   1.544   1.775   3.791  0.1135  0.5265  0.3921
 1255SOL    HW1 3943   1.585   1.837   3.857 -0.4145 -0.7891  2.0135
 1255SOL    HW2 3944   1.464   1.731   3.831  0.4897 -1.2155 -0.6650
 1256SOL     OW 3945   8.257   0.101   7.473  0.1168  0.4494  0.3812
 1256SOL    HW1 3946   8.202   0.179   7.443  1.8571  0.8795 -2.0561
 1256SOL    HW2 3947   8.334   0.134   7.528  1.5384  0.7147 -1.6424
 1257SOL     OW 3948   6.703   8.547   6.046  0.1108 -0.7191  0.2515
 1257SOL    HW1 3949   6.777   8.504   6.098 -0.1868 -1.9937 -0.3615
 1257SOL    HW2 3950   6.731   8.640   6.020  2.4756 -1.9204 -1.9163
 1258SOL     OW 3951   3.535   8.807   4.132  0.2020 -0.4743 -0.4610
 1258SOL    HW1 3952   3.525   8.735   4.200 -2.3754 -0.0038 -0.2321
 1258SOL    HW2 3953   3.574   8.769   4.049 -1.5309 -2.2898 -0.5215
 1259SOL     OW 3954   3.994   3.572   6.798  0.3263  0.0003  0.8564
 1259SOL    HW1 3955   4.062   3.605   6.863 -0.3430 -0.8891  2.0510
 1259SOL    HW2 3956   4.014   3.609   6.707 -0.4725  3.8008  2.0557
 1260SOL     OW 3957   3.596   2.037   2.224  0.7925  0.0478  0.8107
 1260SOL    HW1 3958   3.501   2.055   2.249  0.4945 -1.1341  0.6186
 1260SOL    HW2 3959   3.641   1.989   2.299  1.4543  1.2221  1.1845
 1261SOL     OW 3960   0.651   1.944   3.816 -0.1750 -0.3819 -0.3723
 1261SOL    HW1 3961   0.644   1.854   3.859  2.2711 -1.0423 -1.1981
 1261SOL    HW2 3962   0.724   1.997   3.861 -0.1594  0.3690 -1.2551
 1262SOL     OW 3963   1.470   5.668   0.879  0.3139  0.7177  0.4286
 1262SOL    HW1 3964   1.384   5.718   0.866  0.6119  1.0549 -0.3379
 1262SOL    HW2 3965   1.453   5.587   0.935 -0.6661  0.3404 -0.3749
 1263SOL     OW 3966   8.774   2.461   8.231  0.2194 -0.2129  0.2404
 1263SOL    HW1 3967   8.707   2.427   8.165 -0.0234  1.9825 -0.7279
 1263SOL    HW2 3968   8.847   2.393   8.242 -1.5972 -2.2218  0.5773
 1264SOL     OW 3969   7.075   1.883   2.611 -0.0025  0.6029  0.0922
 1264SOL    HW1 3970   7.105   1.955   2.549 -0.4655  0.6460 -0.0900
 1264SOL    HW2 3971   7.138   1.877   2.689  0.0714  1.1646  0.0803
 1265SOL     OW 3972   0.738   1.973   1.208 -0.7974  0.1298  0.5110
 1265SOL    HW1 3973   0.720   1.928   1.121 -1.3917 -0.1791  0.7916
 1265SOL    HW2 3974   0.787   2.058   1.192  0.6706 -0.7702 -0.0147
 1266SOL     OW 3975   5.262   6.698   6.027  0.0443  0.4048 -0.0077
 1266SOL    HW1 3976   5.267   6.709   5.928  0.4784 -1.9045 -0.2876
 1266SOL    HW2 3977   5.354   6.693   6.065 -0.1197  1.2214  0.5256
 1267SOL     OW 3978   3.557   0.064   5.615 -0.6646 -0.1456  0.2623
 1267SOL    HW1 3979   3.607   0.041   5.532 -0.8225 -0.2506  0.1951
 1267SOL    HW2 3980   3.562   0.162   5.632  1.8406 -0.4393  1.7105
 1268SOL     OW 3981   1.741   6.243   8.396  0.0480  0.1607 -0.3098
 1268SOL    HW1 3982   1.790   6.265   8.312 -1.4323 -0.8681 -1.5045
 1268SOL    HW2 3983   1.799   6.190   8.456  0.5897 -0.5601 -1.4428
 1269SOL     OW 3984   0.538   2.626   4.547 -0.1308 -0.0776  0.0449
 1269SOL    HW1 3985   0.604   2.597   4.478 -1.8738 -1.2072 -1.2547
 1269SOL    HW2 3986   0.505   2.718   4.525 -1.6744 -0.9420 -1.5146
 1270SOL     OW 3987   0.210   3.436   3.736 -0.2255 -0.7360 -0.3850
 1270SOL    HW1 3988   0.166   3.519   3.771 -0.8198 -0.9476 -0.6272
 1270SOL    HW2 3989   0.273   3.400   3.805 -2.5709 -2.0870  1.1693
 1271SOL     OW 3990   6.024   1.382   5.299  0.0955  0.1344 -0.0466
 1271SOL    HW1 3991   5.993   1.396   5.206 -1.3904 -0.3933  0.3449
 1271SOL    HW2 3992   6.006   1.464   5.354  1.1849  0.5343 -0.2502
 1272SOL     OW 3993   0.953   5.034   5.414  0.3306 -0.1483  0.1409
 1272SOL    HW1 3994   1.023   5.091   5.457  0.4763  0.5819 -1.0411
 1272SOL    HW2 3995   0.875   5.090   5.388  1.5074  0.0749 -3.3533
 1273SOL     OW 3996   2.233   5.160   4.006 -0.4854 -0.4405 -0.2770
 1273SOL    HW1 3997   2.177   5.242   4.000 -0.6695 -0.3475  1.9551
 1273SOL    HW2 3998   2.320   5.181   4.048  0.1369 -1.1150 -1.1797
 1274SOL     OW 3999   5.757   8.787   6.100  0.1344  0.4598 -0.1627
 1274SOL    HW1 4000   5.789   8.698   6.134  0.1446  0.5607  0.0955
 1274SOL    HW2 4001   5.691   8.773   6.027 -0.2893  0.2284  0.2549
 1275SOL     OW 4002   0.063   0.444   8.388 -0.2900  0.0665 -0.5030
 1275SOL    HW1 4003  -0.009   0.466   8.454 -0.6179 -1.2253 -0.4041
 1275SOL    HW2 4004   0.033   0.368   8.331  0.8264 -0.1991 -0.7576
 1276SOL     OW 4005   7.598   0.015   7.994  0.3251 -0.5809  0.8676
 1276SOL    HW1 4006   7.604  -0.075   8.037  0.1885 -0.9463  0.1252
 1276SOL    HW2 4007   7.536   0.011   7.916  1.7839 -0.3109 -0.3573
 1277SOL     OW 4008   4.853   1.125   6.925 -0.1969  0.1769 -0.3320
 1277SOL    HW1 4009   4.910   1.090   6.999 -1.4457 -0.3903  0.3953
 1277SOL    HW2 4010   4.893   1.209   6.889  1.7675 -0.8514 -0.7221
 1278SOL     OW 4011   0.417   4.608   2.290  0.6810 -0.4283  0.3736
 1278SOL    HW1 4012   0.469   4.620   2.375  1.1912  1.9582 -0.2172
 1278SOL    HW2 4013   0.352   4.682   2.280 -3.3012 -3.4526  1.2432
 1279SOL     OW 4014   6.797   6.482   1.394 -0.4007  0.1931  0.3521
 1279SOL    HW1 4015   6.837   6.543   1.462  2.9477 -0.8010 -0.5546
 1279SOL    HW2 4016   6.867   6.420   1.359 -2.3370 -0.4137 -2.8606
 1280SOL     OW 4017   0.705   0.427   7.222 -0.3516 -0.3881 -0.2153
 1280SOL    HW1 4018   0.710   0.490   7.300 -0.8004  1.9615 -1.9544
 1280SOL    HW2 4019   0.610   0.400   7.207 -0.4617  0.2670 -0.7400
 1281SOL     OW 4020   5.820   3.046   3.224 -0.3299  0.1005 -0.0310
 1281SOL    HW1 4021   5.856   2.967   3.176 -0.1079  0.0213  0.2644
 1281SOL    HW2 4022   5.744   3.018   3.283 -1.0926  0.3159 -0.8859
 1282SOL     OW 4023   0.474   2.497   1.282  0.1343  0.4311 -0.0621
 1282SOL    HW1 4024   0.456   2.499   1.184 -0.0821  0.6943 -0.0189
 1282SOL    HW2 4025   0.393   2.462   1.329 -0.8013  2.7839  0.2447
 1283SOL     OW 4026   6.709   2.494   5.168 -0.3432 -0.5187  0.1545
 1283SOL    HW1 4027   6.673   2.491   5.075 -0.7231 -1.5934  0.3248
 1283SOL    HW2 4028   6.646   2.547   5.226  1.1246  2.3421 -0.6805
 1284SOL     OW 4029   3.498   3.345   1.377 -0.3926  0.1766  0.4118
 1284SOL    HW1 4030   3.579   3.392   1.343 -0.5830 -0.2484 -0.6459
 1284SOL    HW2 4031   3.512   3.246   1.374 -1.3632  0.0549 -0.9060
 1285SOL     OW 4032   6.334   5.135   8.660  0.1178  0.4666  0.3683
 1285SOL    HW1 4033   6.406   5.082   8.704  0.8737  0.9611 -0.2662
 1285SOL    HW2 4034   6.274   5.073   8.608  1.8677  0.3466 -1.6218
 1286SOL     OW 4035   7.622   4.418   7.556 -0.6080 -0.2178 -0.1222
 1286SOL    HW1 4036   7.566   4.496   7.528 -1.2590 -1.2208 -1.8326
 1286SOL    HW2 4037   7.573   4.365   7.625 -0.2317  0.7563  0.9265
 1287SOL     OW 4038   8.712   8.255   2.424 -0.2958  0.3481  0.0692
 1287SOL    HW1 4039   8.751   8.171   2.388 -3.0398 -0.7974 -0.4972
 1287SOL    HW2 4040   8.696   8.319   2.348 -1.1478  0.0662 -0.0038
 1288SOL     OW 4041   6.116   5.975   3.310 -0.4005 -0.7722 -0.1133
 1288SOL    HW1 4042   6.093   5.879   3.328 -0.5567 -0.2184  3.2766
 1288SOL    HW2 4043   6.036   6.032   3.325  0.1900  0.0674 -0.0942
 1289SOL     OW 4044   8.639   1.563   6.410 -0.1215 -0.5113 -0.1847
 1289SOL    HW1 4045   8.653   1.464   6.407  0.3987 -0.4541  0.2193
 1289SOL    HW2 4046   8.711   1.609   6.358  0.4978 -0.2775  0.8403
 1290SOL     OW 4047   6.629   5.097   8.259  0.4711  0.3114  0.7263
 1290SOL    HW1 4048   6.668   5.110   8.168  0.0515 -0.7160  0.3792
 1290SOL    HW2 4049   6.682   5.148   8.327  1.6792 -0.1022  0.1039
 1291SOL     OW 4050   3.847   4.461   0.613  0.0349  0.0991  0.3360
 1291SOL    HW1 4051   3.905   4.386   0.582  0.2951  0.8715 -1.1033
 1291SOL    HW2 4052   3.762   4.424   0.650 -0.8327 -0.9009 -2.3916
 1292SOL     OW 4053   0.791   4.720   2.583 -0.0829  0.5019  0.0346
 1292SOL    HW1 4054   0.811   4.641   2.525 -1.2066  0.6270 -0.5467
 1292SOL    HW2 4055   0.841   4.711   2.669  0.8626 -0.1569 -0.5611
 1293SOL     OW 4056   1.122   0.067   6.721 -0.0575  0.1515  0.1440
 1293SOL    HW1 4057   1.033   0.091   6.682  0.1815  1.6656  0.4705
 1293SOL    HW2 4058   1.150   0.137   6.786  0.8602 -0.8934  0.9123
 1294SOL     OW 4059   4.684   8.859   2.376 -0.1135  0.0529  0.3161
 1294SOL    HW1 4060   4.597   8.833   2.334 -0.3103 -1.2006  1.4160
 1294SOL    HW2 4061   4.678   8.953   2.410 -1.4048 -0.3392  1.2549
 1295SOL     OW 4062   0.161   2.622   8.139  0.5936  0.2095  0.8810
 1295SOL    HW1 4063   0.159   2.563   8.058  0.7405 -0.4401  1.3404
 1295SOL    HW2 4064   0.068   2.631   8.175  0.0455  2.7082 -0.8935
 1296SOL     OW 4065   8.711   0.478   3.952  0.0437  0.0817  0.3818
 1296SOL    HW1 4066   8.684   0.479   3.855  0.3280 -1.2531  0.2737
 1296SOL    HW2 4067   8.787   0.415   3.964  2.6861  3.0831  0.8168
 1297SOL     OW 4068   6.215   7.109   1.394 -0.2667  0.0221 -1.0414
 1297SOL    HW1 4069   6.309   7.139   1.379 -0.3799  0.3007 -1.1986
 1297SOL    HW2 4070   6.215   7.026   1.450  0.2413 -1.6740 -3.3710
 1298SOL     OW 4071   5.088   2.742   2.154 -0.3612  0.7480 -0.5296
 1298SOL    HW1 4072   5.002   2.751   2.205 -0.2673  0.6939 -0.3624
 1298SOL    HW2 4073   5.083   2.662   2.096 -0.7716  1.2447 -1.1939
 1299SOL     OW 4074   6.002   3.904   5.509 -0.5835  0.6320  0.2275
 1299SOL    HW1 4075   5.913   3.924   5.468 -0.9306  0.4822  0.8844
 1299SOL    HW2 4076   6.061   3.861   5.441 -0.8086  1.2665 -0.3792
 1300SOL     OW 4077   0.529   3.622   7.166 -0.1948  0.2954  0.3039
 1300SOL    HW1 4078   0.544   3.692   7.096  0.9552 -1.3630 -1.1744
 1300SOL    HW2 4079   0.482   3.544   7.126 -2.0370  0.4117  2.0917
 1301SOL     OW 4080   5.879   7.525   3.674 -0.1739  0.1189 -0.0738
 1301SOL    HW1 4081   5.787   7.488   3.686 -0.6537 -0.0931 -3.5165
 1301SOL    HW2 4082   5.885   7.614   3.719 -2.9138  1.2465 -1.6706
 1302SOL     OW 4083   0.971   2.641   2.644  0.1794  0.5101 -0.1642
 1302SOL    HW1 4084   0.967   2.699   2.562 -1.0107 -0.6151 -0.9510
 1302SOL    HW2 4085   0.964   2.545   2.617  1.4546  0.0115  1.1579
 1303SOL     OW 4086   1.168   5.196   2.953  0.1540  0.2471  0.0946
 1303SOL    HW1 4087   1.190   5.124   3.020  1.4716 -0.4866 -1.0742
 1303SOL    HW2 4088   1.104   5.159   2.885 -0.1890  0.6053  0.2160
 1304SOL     OW 4089   8.480   1.417   4.811 -0.2599  0.2416 -0.6615
 1304SOL    HW1 4090   8.418   1.472   4.867 -0.6290  0.0478 -0.8751
 1304SOL    HW2 4091   8.466   1.320   4.831  0.0157  0.1986 -0.6690
 1305SOL     OW 4092   0.314   5.568   7.272 -0.0498 -0.1505  0.0224
 1305SOL    HW1 4093   0.407   5.600   7.289  0.3802 -1.3366  0.0559
 1305SOL    HW2 4094   0.266   5.633   7.214  1.2268 -0.1324 -1.0584
 1306SOL     OW 4095   2.046   0.957   2.979  0.1994 -0.4904 -0.2085
 1306SOL    HW1 4096   2.061   0.879   3.040  0.8835 -0.8893 -0.8739
 1306SOL    HW2 4097   2.131   1.011   2.974  0.9947 -1.8218 -2.7000
 1307SOL     OW 4098   5.381   2.289   4.618  0.4749  0.0610 -0.5179
 1307SOL    HW1 4099   5.470   2.251   4.641 -0.2020 -0.4736  1.4279
 1307SOL    HW2 4100   5.358   2.363   4.682 -0.3296  0.4374 -1.2163
 1308SOL     OW 4101   4.090   6.929   8.009 -0.3174  0.6733  0.5466
 1308SOL    HW1 4102   4.150   7.008   8.001 -0.7173  0.8008 -2.3975
 1308SOL    HW2 4103   3.997   6.955   7.985 -0.6704 -0.4636  0.6063
 1309SOL     OW 4104   2.488   8.691   8.051 -0.6432 -0.1597  0.0228
 1309SOL    HW1 4105   2.508   8.724   8.144  0.6614  0.5916 -0.5056
 1309SOL    HW2 4106   2.550   8.616   8.029 -3.0449 -2.5754  0.9027
 1310SOL     OW 4107   4.016   8.722   6.750 -0.3448 -0.4449 -0.4823
 1310SOL    HW1 4108   3.966   8.804   6.723  2.1973  1.8338  1.1808
 1310SOL    HW2 4109   4.108   8.724   6.711  0.7108 -1.0660  1.7736
 1311SOL     OW 4110   5.382   0.375   8.143 -0.0612  0.3291  0.8186
 1311SOL    HW1 4111   5.283   0.361   8.148 -0.3347  1.6709 -0.2468
 1311SOL    HW2 4112   5.414   0.358   8.050  0.5267  0.9185  0.9030
 1312SOL     OW 4113   1.733   7.084   2.621 -0.1549  0.8784 -0.4350
 1312SOL    HW1 4114   1.757   7.180   2.630  0.7250  0.7425 -1.1988
 1312SOL    HW2 4115   1.794   7.028   2.677 -1.6109  0.8495  1.2022
 1313SOL     OW 4116   0.905   6.555   1.919  0.4735  0.1029  0.3302
 1313SOL    HW1 4117   0.849   6.503   1.855  1.8415  0.8802 -1.6088
 1313SOL    HW2 4118   0.979   6.497   1.954  0.1986 -0.0995  0.5776
 1314SOL     OW 4119   0.782   8.075   0.808 -0.3033 -0.6016  0.5768
 1314SOL    HW1 4120   0.788   8.110   0.901 -0.3955  0.9126  0.0385
 1314SOL    HW2 4121   0.722   8.134   0.754 -0.2645 -1.4650 -0.4461
 1315SOL     OW 4122   0.877   2.335   4.541 -0.0028 -0.5734 -0.2574
 1315SOL    HW1 4123   0.853   2.419   4.590  0.2195 -0.8226  0.2869
 1315SOL    HW2 4124   0.870   2.257   4.603 -0.3154 -0.9747 -0.7930
 1316SOL     OW 4125   0.044   8.444   5.432 -0.0521 -0.0753 -0.2662
 1316SOL    HW1 4126   0.045   8.544   5.419  0.7075 -0.0460 -0.0105
 1316SOL    HW2 4127   0.077   8.422   5.524  0.5711 -0.6054 -0.6131
 1317SOL     OW 4128   3.869   5.471   2.837  0.1384 -0.1048 -0.1207
 1317SOL    HW1 4129   3.877   5.556   2.890 -0.6515 -0.8920  1.3459
 1317SOL    HW2 4130   3.944   5.410   2.860 -1.7494 -1.6482  2.5015
 1318SOL     OW 4131   3.421   4.841   5.909 -0.4219  0.7187  0.5290
 1318SOL    HW1 4132   3.345   4.842   5.845 -0.2051 -1.5899  0.1597
 1318SOL    HW2 4133   3.386   4.850   6.002 -1.1036  0.2289  0.3287
 1319SOL     OW 4134   5.007   5.925   5.423 -0.2465 -0.0395  0.4062
 1319SOL    HW1 4135   5.087   5.977   5.393  0.3968 -0.4101  1.4051
 1319SOL    HW2 4136   4.961   5.973   5.497  0.5625 -1.0042  1.5889
 1320SOL     OW 4137   1.663   1.949   3.963 -0.3022  0.2662 -0.0094
 1320SOL    HW1 4138   1.757   1.973   3.988 -0.9395  1.4142  1.4394
 1320SOL    HW2 4139   1.611   2.033   3.947 -0.9932 -0.3752 -1.2301
 1321SOL     OW 4140   7.822   0.093   1.248  0.1455  0.3949  0.0053
 1321SOL    HW1 4141   7.874   0.149   1.312 -1.6685  1.6231  0.4612
 1321SOL    HW2 4142   7.762   0.031   1.299 -2.5274  2.5083 -0.3685
 1322SOL     OW 4143   6.950   2.080   4.628  0.2320  0.6116  0.0165
 1322SOL    HW1 4144   7.036   2.108   4.586 -0.3905  1.1064 -0.9646
 1322SOL    HW2 4145   6.944   2.117   4.721  1.6368 -0.5216  0.5957
 1323SOL     OW 4146   0.824   0.279   5.841  0.4365  0.3049 -0.0687
 1323SOL    HW1 4147   0.883   0.214   5.888  2.0979  0.8780 -1.2776
 1323SOL    HW2 4148   0.814   0.251   5.745  0.1240  1.1300 -0.2827
 1324SOL     OW 4149   3.540   8.393   3.075  0.1157  0.5451  0.4673
 1324SOL    HW1 4150   3.629   8.415   3.035 -0.6064 -0.4276 -1.8491
 1324SOL    HW2 4151   3.483   8.346   3.007 -2.0740  0.8548  1.9627
 1325SOL     OW 4152   4.446   1.577   2.299  0.0809 -0.3629  0.6601
 1325SOL    HW1 4153   4.440   1.479   2.319  0.5248 -0.5584 -0.1269
 1325SOL    HW2 4154   4.387   1.627   2.362 -1.4576 -1.2795  0.0163
 1326SOL     OW 4155   6.525   4.971   8.765  0.8437  0.3632  0.0409
 1326SOL    HW1 4156   6.472   4.898   8.809 -0.0231  1.6273  1.1990
 1326SOL    HW2 4157   6.601   4.931   8.714  0.3042 -1.3505  0.5046
 1327SOL     OW 4158   4.489   2.927   5.754 -0.1081 -0.4557 -0.1709
 1327SOL    HW1 4159   4.516   2.891   5.665 -0.6492 -0.2867 -0.4085
 1327SOL    HW2 4160   4.554   2.997   5.782 -1.0670  1.0099 -1.4289
 1328SOL     OW 4161   2.317   1.973   1.495  0.2148 -0.1989  0.2850
 1328SOL    HW1 4162   2.312   1.974   1.595 -3.6113 -3.3087  0.3273
 1328SOL    HW2 4163   2.240   2.024   1.457  0.3073 -0.9950 -1.0292
 1329SOL     OW 4164   0.573   1.130   8.407 -0.3083  0.0690  0.6576
 1329SOL    HW1 4165   0.616   1.043   8.384 -0.8027 -0.0072 -0.0007
 1329SOL    HW2 4166   0.492   1.114   8.463 -1.4664 -0.0573 -0.9742
 1330SOL     OW 4167   6.543   7.235   1.356  0.4565  0.5575 -0.3752
 1330SOL    HW1 4168   6.573   7.176   1.281  0.1566  2.0609 -1.7447
 1330SOL    HW2 4169   6.559   7.331   1.331 -3.3360  1.3730 -0.2999
 1331SOL     OW 4170   5.704   0.703   4.953 -0.2923  0.1547 -0.2074
 1331SOL    HW1 4171   5.668   0.715   4.860  0.3650  1.2692 -0.3392
 1331SOL    HW2 4172   5.747   0.614   4.961 -0.6874 -0.1058 -0.8619
 1332SOL     OW 4173   6.204   5.445   1.347 -0.7022 -0.6764 -0.7052
 1332SOL    HW1 4174   6.156   5.527   1.379  1.3175  0.6439 -0.8395
 1332SOL    HW2 4175   6.187   5.370   1.410 -0.9702  0.4175  0.5813
 1333SOL     OW 4176   8.143   4.248   5.644  0.2921 -0.1469 -0.2803
 1333SOL    HW1 4177   8.127   4.186   5.567 -1.3769 -0.9218  0.6340
 1333SOL    HW2 4178   8.102   4.337   5.624 -0.6331 -0.5179 -0.0868
 1334SOL     OW 4179   3.208   5.113   3.268  0.3634  0.2227  0.2193
 1334SOL    HW1 4180   3.133   5.049   3.250  1.3753 -1.4735  1.7475
 1334SOL    HW2 4181   3.216   5.128   3.366  1.8342  0.6011  0.0609
 1335SOL     OW 4182   2.038   3.478   7.787  0.1493 -0.4627  0.1708
 1335SOL    HW1 4183   2.021   3.455   7.691 -2.1621  2.0699 -0.1522
 1335SOL    HW2 4184   1.974   3.427   7.845  0.0518 -0.3728  0.1438
 1336SOL     OW 4185   4.088   3.170   5.896  0.4991  0.2703 -0.2284
 1336SOL    HW1 4186   4.064   3.111   5.819 -1.6646 -0.2155  0.7479
 1336SOL    HW2 4187   4.087   3.116   5.980 -0.8382  1.5066  0.5968
 1337SOL     OW 4188   8.813   7.605   4.173 -0.3601 -0.7079  0.1844
 1337SOL    HW1 4189   8.782   7.686   4.122  0.2270 -1.7477 -1.9572
 1337SOL    HW2 4190   8.757   7.594   4.255  0.0943  2.3241  1.0312
 1338SOL     OW 4191   8.032   1.936   2.264 -0.6886  0.2717 -0.3929
 1338SOL    HW1 4192   8.042   1.931   2.164 -0.5870 -0.6777 -0.3466
 1338SOL    HW2 4193   8.076   1.857   2.305 -1.8429 -0.0189  0.3259
 1339SOL     OW 4194   7.480   7.087   2.792  0.0131  0.0093 -0.2574
 1339SOL    HW1 4195   7.552   7.019   2.789  0.7469  0.7522  0.0447
 1339SOL    HW2 4196   7.520   7.177   2.811 -0.8420  0.6595 -1.4074
 1340SOL     OW 4197   4.290   6.746   4.098  0.2628 -0.0573  0.3641
 1340SOL    HW1 4198   4.287   6.683   4.176 -1.8042 -0.8522 -0.2771
 1340SOL    HW2 4199   4.289   6.693   4.013  2.8724  0.7855 -0.2891
 1341SOL     OW 4200   6.592   7.999   3.040 -0.0240  0.0200 -0.1709
 1341SOL    HW1 4201   6.634   8.083   3.007  0.6651 -0.9202 -1.8145
 1341SOL    HW2 4202   6.663   7.931   3.059 -0.4691  0.1424  2.3108
 1342SOL     OW 4203   5.277   5.945   4.037 -0.1504 -0.4840  0.0439
 1342SOL    HW1 4204   5.200   6.004   4.012  0.1021 -1.2449 -2.9263
 1342SOL    HW2 4205   5.362   5.997   4.028 -0.1561 -0.0829  1.8589
 1343SOL     OW 4206   1.357   8.593   0.419 -0.1192 -0.2550 -0.4601
 1343SOL    HW1 4207   1.341   8.635   0.509  0.7570 -2.8472  1.0211
 1343SOL    HW2 4208   1.270   8.564   0.380 -0.3978 -0.2739  0.1637
 1344SOL     OW 4209   2.823   1.169   1.779  0.2051 -0.2432  0.2923
 1344SOL    HW1 4210   2.800   1.140   1.686  1.7940  0.5612 -0.3929
 1344SOL    HW2 4211   2.774   1.112   1.845  1.5658 -3.0889 -0.9821
 1345SOL     OW 4212   6.696   0.319   2.253 -0.3402  0.0812  0.0264
 1345SOL    HW1 4213   6.738   0.409   2.246  0.3244 -0.3379 -1.6177
 1345SOL    HW2 4214   6.722   0.277   2.340 -0.0579  1.1480  0.4779
 1346SOL     OW 4215   5.211   1.825   3.481 -0.1442 -0.2889 -0.6254
 1346SOL    HW1 4216   5.283   1.773   3.436 -0.2131 -0.0518 -1.0230
 1346SOL    HW2 4217   5.164   1.767   3.547 -1.3136 -1.2734 -2.2313
 1347SOL     OW 4218   2.579   7.292   6.491  0.4459 -0.0911 -0.1138
 1347SOL    HW1 4219   2.495   7.342   6.473  0.0273  0.0615  2.0168
 1347SOL    HW2 4220   2.633   7.286   6.407 -0.6780  1.6840 -1.0227
 1348SOL     OW 4221   6.838   2.995   5.967 -0.0868 -0.3884  0.6800
 1348SOL    HW1 4222   6.895   3.031   6.040 -1.4772  3.6266  0.0403
 1348SOL    HW2 4223   6.743   3.022   5.983 -0.6403 -0.5315 -1.9162
 1349SOL     OW 4224   7.938   3.836   4.325 -0.2499 -0.3820  0.5197
 1349SOL    HW1 4225   7.961   3.837   4.228  2.3872  0.8055  1.0569
 1349SOL    HW2 4226   7.851   3.883   4.340 -0.0302  0.6202 -1.1391
 1350SOL     OW 4227   6.235   8.167   3.263 -0.0959 -0.5646  0.5499
 1350SOL    HW1 4228   6.201   8.082   3.304  1.8560 -1.2567  0.8444
 1350SOL    HW2 4229   6.250   8.152   3.165 -1.6428  0.0879  0.1859
 1351SOL     OW 4230   0.522   1.017   6.936 -0.2666  0.2729 -0.2570
 1351SOL    HW1 4231   0.465   1.006   6.855 -1.2575  1.4227  0.2411
 1351SOL    HW2 4232   0.586   1.092   6.922  1.5393 -1.3210 -0.9979
 1352SOL     OW 4233   5.116   7.711   4.355  0.3931  0.0193  0.2174
 1352SOL    HW1 4234   5.051   7.772   4.400 -1.0493  1.0279 -2.9591
 1352SOL    HW2 4235   5.192   7.766   4.318  0.9502 -0.6225  0.3878
 1353SOL     OW 4236   2.632   5.168   7.837  0.0605  0.4524 -0.2298
 1353SOL    HW1 4237   2.562   5.145   7.904 -0.7084  0.2359 -1.0817
 1353SOL    HW2 4238   2.633   5.267   7.821 -1.0181  0.3222 -1.2195
 1354SOL     OW 4239   2.695   4.496   1.658 -0.3705 -0.0085  0.3401
 1354SOL    HW1 4240   2.773   4.436   1.675 -1.4445 -1.3330  0.7636
 1354SOL    HW2 4241   2.705   4.579   1.712  0.4772 -0.3939  0.7997
 1355SOL     OW 4242   0.205   8.025   3.944 -0.3603 -0.6717  0.0719
 1355SOL    HW1 4243   0.281   8.035   3.880 -0.0883 -0.1862  0.4669
 1355SOL    HW2 4244   0.178   7.929   3.948  0.6399 -0.9561  0.3920
 1356SOL     OW 4245   0.803   1.791   3.431 -0.4835 -0.2625 -0.0414
 1356SOL    HW1 4246   0.812   1.772   3.529 -1.9233  0.3526  0.2447
 1356SOL    HW2 4247   0.710   1.769   3.401 -0.5501  1.0385 -0.8984
 1357SOL     OW 4248   7.456   0.222   8.765  0.6351  0.3581 -0.2675
 1357SOL    HW1 4249   7.439   0.309   8.718  3.2023 -0.4352 -3.0215
 1357SOL    HW2 4250   7.505   0.239   8.850 -1.5551  1.6975  0.8163
 1358SOL     OW 4251   4.423   5.903   7.587  0.1408 -0.0982 -0.6117
 1358SOL    HW1 4252   4.373   5.818   7.601 -0.5137  0.4179  0.3928
 1358SOL    HW2 4253   4.382   5.975   7.644  2.2283  0.2707  0.5509
 1359SOL     OW 4254   1.198   0.197   0.945  0.2259 -0.5969 -0.6648
 1359SOL    HW1 4255   1.146   0.248   0.877 -1.5727 -1.1968  0.2028
 1359SOL    HW2 4256   1.176   0.100   0.939  1.3189 -0.8861 -0.3108
 1360SOL     OW 4257   7.239   3.263   4.970  0.2227 -0.5069 -0.2254
 1360SOL    HW1 4258   7.202   3.353   4.992  1.0545 -0.4307  1.0184
 1360SOL    HW2 4259   7.226   3.244   4.873 -0.5945  0.6465 -0.3656
 1361SOL     OW 4260   8.057   0.049   7.683  0.7700  0.2673  0.0012
 1361SOL    HW1 4261   8.028   0.145   7.688 -0.8477 -0.0232 -2.2401
 1361SOL    HW2 4262   8.137   0.042   7.624  1.0999  0.2511  0.4426
 1362SOL     OW 4263   6.367   6.680   2.722 -0.6999  0.5299  0.0621
 1362SOL    HW1 4264   6.390   6.583   2.709 -0.0714  0.9039 -1.8534
 1362SOL    HW2 4265   6.384   6.705   2.818  0.5009 -0.8832  0.2637
 1363SOL     OW 4266   3.170   6.905   5.129 -0.5579 -0.1980 -0.6298
 1363SOL    HW1 4267   3.181   6.806   5.118 -3.1262 -0.2979 -4.0737
 1363SOL    HW2 4268   3.240   6.953   5.076  1.3839  0.0140  1.9143
 1364SOL     OW 4269   0.709   0.579   3.273  0.4570 -0.8682 -0.4088
 1364SOL    HW1 4270   0.672   0.612   3.187  2.0278  1.5460 -0.2847
 1364SOL    HW2 4271   0.790   0.522   3.255  0.6872 -0.5008 -0.5528
 1365SOL     OW 4272   7.357   2.244   2.851 -0.4472  0.4524  0.5283
 1365SOL    HW1 4273   7.452   2.263   2.827 -0.6617 -1.1179 -1.8539
 1365SOL    HW2 4274   7.296   2.294   2.790 -1.1312  0.2008  0.9910
 1366SOL     OW 4275   0.346   4.351   1.250  0.0503 -0.5469 -0.5846
 1366SOL    HW1 4276   0.440   4.316   1.254  0.5183  0.6058 -1.0737
 1366SOL    HW2 4277   0.298   4.309   1.173 -0.0575 -1.6196  0.0406
 1367SOL     OW 4278   3.010   4.111   2.593  0.2112  0.6599 -0.0305
 1367SOL    HW1 4279   2.927   4.059   2.574 -0.1139  0.7081  1.1896
 1367SOL    HW2 4280   3.033   4.166   2.512 -0.4545  0.0114 -0.6870
 1368SOL     OW 4281   8.061   1.487   5.158 -0.0176 -0.0473 -0.1559
 1368SOL    HW1 4282   8.136   1.427   5.134  0.6719  0.6589  0.2020
 1368SOL    HW2 4283   8.061   1.568   5.098  1.7743  1.7746  2.1037
 1369SOL     OW 4284   1.540   4.074   8.204 -0.8326  0.4445 -0.3176
 1369SOL    HW1 4285   1.613   4.119   8.255 -1.0944 -1.1002  1.5288
 1369SOL    HW2 4286   1.467   4.140   8.186 -0.9195  0.9622  1.7080
 1370SOL     OW 4287   6.407   8.530   7.167 -0.6212 -0.0385  0.4109
 1370SOL    HW1 4288   6.395   8.627   7.187  0.0003  0.2900 -0.7328
 1370SOL    HW2 4289   6.498   8.515   7.126 -0.3723 -1.2224  1.3166
 1371SOL     OW 4290   1.532   3.414   1.447  0.5402  0.0707 -0.3525
 1371SOL    HW1 4291   1.558   3.475   1.372  0.4834 -0.5663 -0.8961
 1371SOL    HW2 4292   1.537   3.319   1.416  1.9897 -0.2958  0.8818
 1372SOL     OW 4293   2.135   8.667   3.584  0.6767  0.0772 -0.1624
 1372SOL    HW1 4294   2.082   8.747   3.559 -1.2951 -0.5012  1.8560
 1372SOL    HW2 4295   2.193   8.688   3.663  0.1468 -0.4412  0.3818
 1373SOL     OW 4296   1.214   7.975   1.998  0.0876  0.1187  0.1904
 1373SOL    HW1 4297   1.196   7.911   2.073 -0.4393  1.1985  1.0001
 1373SOL    HW2 4298   1.140   8.042   1.992  0.1973  0.1533 -1.2082
 1374SOL     OW 4299   7.856   2.743   0.830  0.6264 -0.6108 -0.0709
 1374SOL    HW1 4300   7.865   2.645   0.845  1.1491 -0.6369 -0.5723
 1374SOL    HW2 4301   7.850   2.762   0.732  0.3163 -0.1563  0.0313
 1375SOL     OW 4302   2.269   4.813   5.865  0.2254 -0.2419 -0.2057
 1375SOL    HW1 4303   2.333   4.760   5.810  1.0877 -0.0796  0.6224
 1375SOL    HW2 4304   2.257   4.769   5.954  0.2168  0.4462  0.1359
 1376SOL     OW 4305   3.666   7.079   6.769  0.7515 -0.2149  0.1816
 1376SOL    HW1 4306   3.668   7.151   6.839 -0.4141 -0.5334  0.5649
 1376SOL    HW2 4307   3.595   7.013   6.792  2.3585 -1.9853  0.3040
 1377SOL     OW 4308   2.037   8.842   3.245 -0.1835 -0.5604 -0.5954
 1377SOL    HW1 4309   2.013   8.745   3.257  0.1503 -0.5130  0.6785
 1377SOL    HW2 4310   2.132   8.855   3.275 -0.4861  0.3019  0.0125
 1378SOL     OW 4311   7.258   2.913   8.720  0.8059  0.5658 -0.0574
 1378SOL    HW1 4312   7.321   2.908   8.797  0.6019  0.6609  0.1179
 1378SOL    HW2 4313   7.281   2.992   8.663 -0.5200  1.9733  1.2379
 1379SOL     OW 4314   0.266   5.196   6.735 -0.3040  0.3783  0.1456
 1379SOL    HW1 4315   0.244   5.099   6.722  0.0002  0.4981 -1.4655
 1379SOL    HW2 4316   0.239   5.224   6.827 -1.6464 -0.8999  0.1793
 1380SOL     OW 4317   2.435   8.132   3.724  0.1931 -0.4631 -0.4932
 1380SOL    HW1 4318   2.392   8.089   3.803 -1.0768  1.7781  0.1463
 1380SOL    HW2 4319   2.374   8.124   3.645 -0.3362  0.6144 -0.2139
 1381SOL     OW 4320   3.552   0.990   6.449  0.2983  0.2444 -0.2492
 1381SOL    HW1 4321   3.610   0.908   6.453  0.3175  0.2492 -0.4023
 1381SOL    HW2 4322   3.605   1.065   6.409  0.1270  0.1981 -0.5622
 1382SOL     OW 4323   3.462   0.732   8.328 -0.0607  0.6259 -0.5543
 1382SOL    HW1 4324   3.410   0.647   8.328 -1.1477  1.2694 -0.4940
 1382SOL    HW2 4325   3.521   0.735   8.247  1.2528 -0.8954  0.2824
 1383SOL     OW 4326   4.248   8.142   1.741 -0.2437 -0.1595  0.2305
 1383SOL    HW1 4327   4.215   8.053   1.774 -0.4012 -0.8062 -1.5351
 1383SOL    HW2 4328   4.172   8.206   1.737 -0.8669 -0.9339 -1.5241
 1384SOL     OW 4329   2.914   2.889   0.244  0.1169 -0.7416  0.3532
 1384SOL    HW1 4330   2.956   2.823   0.308  1.5158 -0.4314 -0.2271
 1384SOL    HW2 4331   2.952   2.876   0.153 -0.8765 -0.2670 -0.1393
 1385SOL     OW 4332   0.580   8.208   8.074  0.1484  0.0581 -0.3320
 1385SOL    HW1 4333   0.677   8.186   8.083  0.4458  0.4185 -2.1227
 1385SOL    HW2 4334   0.563   8.302   8.106  0.4712  0.1179 -0.3375
 1386SOL     OW 4335   4.992   5.093   0.351  0.1784 -0.3698  0.2214
 1386SOL    HW1 4336   5.020   5.140   0.267  0.9257  0.2610  0.8108
 1386SOL    HW2 4337   4.896   5.065   0.343  0.2159 -0.2419 -0.8038
 1387SOL     OW 4338   8.137   4.533   4.711 -0.6050 -0.1125 -0.0898
 1387SOL    HW1 4339   8.199   4.516   4.635 -1.0343  1.6546 -0.9088
 1387SOL    HW2 4340   8.154   4.625   4.748 -1.5830 -0.2609  0.7846
 1388SOL     OW 4341   6.140   5.867   6.452  0.4516  0.0984 -0.7635
 1388SOL    HW1 4342   6.153   5.778   6.408  0.2963 -0.6291  0.5990
 1388SOL    HW2 4343   6.051   5.905   6.427 -0.6648 -1.4109  0.7010
 1389SOL     OW 4344   5.320   0.315   4.664 -0.1315  0.2913 -0.4976
 1389SOL    HW1 4345   5.233   0.347   4.629 -0.6644 -1.3495 -0.7812
 1389SOL    HW2 4346   5.367   0.261   4.593  0.9226  0.8030 -0.2112
 1390SOL     OW 4347   3.144   3.387   4.465  0.2216  0.6290  0.3022
 1390SOL    HW1 4348   3.217   3.417   4.526  0.9794 -0.4824 -0.0033
 1390SOL    HW2 4349   3.129   3.288   4.478 -1.9562  1.0030  1.0863
 1391SOL     OW 4350   5.692   5.446   7.977  0.3635 -0.5485  0.4886
 1391SOL    HW1 4351   5.661   5.398   8.059 -0.7582 -0.5079  0.1000
 1391SOL    HW2 4352   5.694   5.545   7.996  1.1319 -0.6186  0.7919
 1392SOL     OW 4353   5.857   0.293   8.413  0.0156  0.4597  0.2247
 1392SOL    HW1 4354   5.951   0.306   8.383  0.8293  1.9622  3.0615
 1392SOL    HW2 4355   5.799   0.365   8.374  0.1023 -0.1548 -1.0916
 1393SOL     OW 4356   8.293   4.279   3.760 -0.0416  0.0852 -0.1672
 1393SOL    HW1 4357   8.345   4.281   3.674  1.2936 -1.2882  0.5558
 1393SOL    HW2 4358   8.329   4.349   3.821 -0.7697  0.8386 -0.5825
 1394SOL     OW 4359   1.500   8.338   3.248 -0.3964 -0.5374 -0.2682
 1394SOL    HW1 4360   1.535   8.249   3.220  4.0061  0.4400  1.3627
 1394SOL    HW2 4361   1.484   8.338   3.347 -3.5495 -0.3285 -0.6718
 1395SOL     OW 4362   1.099   7.214   8.543 -0.6140 -0.7396 -0.2317
 1395SOL    HW1 4363   1.192   7.230   8.510 -0.6184  1.0313  0.5269
 1395SOL    HW2 4364   1.059   7.300   8.576 -1.4149 -1.9819  2.3143
 1396SOL     OW 4365   0.402   1.734   2.216 -0.3168 -0.4346 -0.1976
 1396SOL    HW1 4366   0.325   1.679   2.185  0.6488 -1.6295 -0.5687
 1396SOL    HW2 4367   0.471   1.739   2.144  0.6687 -0.7639  0.6892
 1397SOL     OW 4368   8.016   7.899   5.386  0.1475 -0.3133  0.0493
 1397SOL    HW1 4369   8.055   7.968   5.325  1.9155 -0.5624  0.8159
 1397SOL    HW2 4370   8.081   7.823   5.396 -0.9031 -1.1485  0.7881
 1398SOL     OW 4371   6.286   2.613   7.289  0.3300  0.1743  0.2477
 1398SOL    HW1 4372   6.364   2.605   7.227  1.0242  2.4783  0.7210
 1398SOL    HW2 4373   6.267   2.709   7.307 -0.8617 -0.3729  2.3337
 1399SOL     OW 4374   6.637   7.614   1.995  0.4605  0.2525 -0.2044
 1399SOL    HW1 4375   6.556   7.596   2.052  0.8720 -1.2933 -0.0568
 1399SOL    HW2 4376   6.646   7.541   1.927  1.6952  0.4542 -0.2666
 1400SOL     OW 4377   4.823   8.402   3.307  0.0545  0.0522  0.2624
 1400SOL    HW1 4378   4.907   8.372   3.262  0.8406 -0.2261  1.8456
 1400SOL    HW2 4379   4.795   8.335   3.375 -1.5532  0.0815 -0.3301
 1401SOL     OW 4380   5.534   5.813   1.226 -0.0052  0.4589  0.0991
 1401SOL    HW1 4381   5.569   5.812   1.320  0.4795 -0.0344 -0.0776
 1401SOL    HW2 4382   5.493   5.902   1.206 -2.8144 -0.3581  1.7319
 1402SOL     OW 4383   2.232   3.901   2.649  0.5602 -0.1385 -0.0296
 1402SOL    HW1 4384   2.315   3.941   2.609  1.1300 -1.2762 -0.0365
 1402SOL    HW2 4385   2.152   3.932   2.599  1.1612 -0.6409 -1.3484
 1403SOL     OW 4386   4.730   8.148   3.105 -0.4893  0.4323 -0.0917
 1403SOL    HW1 4387   4.784   8.230   3.086  1.6719 -0.8424  0.2661
 1403SOL    HW2 4388   4.633   8.168   3.088 -0.1923  3.3438  0.9996
 1404SOL     OW 4389   6.032   7.944   3.323  0.4254  0.7493  0.3010
 1404SOL    HW1 4390   5.940   7.977   3.303  0.5594  1.4864  0.8311
 1404SOL    HW2 4391   6.048   7.857   3.277 -0.5635  0.5800  0.2692
 1405SOL     OW 4392   4.291   8.764   4.715 -0.4326  0.2446  0.1943
 1405SOL    HW1 4393   4.273   8.712   4.631  0.7912  0.2609 -0.0993
 1405SOL    HW2 4394   4.339   8.705   4.780 -1.5594  0.1728  0.9798
 1406SOL     OW 4395   5.040   3.917   3.998 -0.2276 -0.8702  0.0120
 1406SOL    HW1 4396   5.076   3.930   4.090 -1.1591 -0.8534  0.3792
 1406SOL    HW2 4397   4.956   3.862   4.001 -0.4057 -0.6674 -0.7993
 1407SOL     OW 4398   3.504   3.438   1.997  0.8809 -0.1955  0.2513
 1407SOL    HW1 4399   3.452   3.385   2.063  0.9609  1.8700  2.0793
 1407SOL    HW2 4400   3.444   3.469   1.923 -0.0188  0.3828  1.2100
 1408SOL     OW 4401   0.445   2.317   8.765 -0.0903  0.0590  0.8889
 1408SOL    HW1 4402   0.494   2.387   8.714  1.2013 -0.8211  0.8677
 1408SOL    HW2 4403   0.424   2.240   8.704 -1.7203  0.4872  0.8445
 1409SOL     OW 4404   0.856   2.928   7.698 -0.1209 -0.1728  0.3598
 1409SOL    HW1 4405   0.806   2.986   7.634 -1.3647  0.5326  1.9161
 1409SOL    HW2 4406   0.941   2.973   7.725 -0.8578  0.7340  1.2030
 1410SOL     OW 4407   3.326   8.312   6.428  0.0340  0.4151  0.1421
 1410SOL    HW1 4408   3.409   8.259   6.439  0.4160  1.2634  1.6237
 1410SOL    HW2 4409   3.292   8.302   6.335  0.5887 -1.6544  0.1235
 1411SOL     OW 4410   8.238   8.659   0.785  0.3092 -0.2162  0.2401
 1411SOL    HW1 4411   8.208   8.715   0.708 -1.0285 -0.7554  0.3422
 1411SOL    HW2 4412   8.241   8.715   0.868  2.5809  0.5827 -0.3020
 1412SOL     OW 4413   8.755   8.235   1.153 -0.3928 -0.3546 -0.0288
 1412SOL    HW1 4414   8.829   8.257   1.089  0.4977 -0.0662  1.0737
 1412SOL    HW2 4415   8.751   8.136   1.165  0.5618 -0.3202  0.7366
 1413SOL     OW 4416   2.866   7.254   8.814 -0.3009  0.0142  0.5443
 1413SOL    HW1 4417   2.820   7.167   8.799 -1.9057  0.7326  1.0515
 1413SOL    HW2 4418   2.964   7.239   8.828 -0.3009 -1.5357 -0.9242
 1414SOL     OW 4419   8.515   5.796   8.803 -0.0793  0.4918 -0.3388
 1414SOL    HW1 4420   8.585   5.742   8.757  0.8167  1.1804  0.1960
 1414SOL    HW2 4421   8.428   5.747   8.798  0.1454  0.2031 -2.0761
 1415SOL     OW 4422   3.084   2.243   7.324 -0.0028  0.6032 -0.3817
 1415SOL    HW1 4423   3.102   2.336   7.357  0.3978  0.6228 -0.6518
 1415SOL    HW2 4424   3.052   2.187   7.400  2.8932  0.0885  0.6135
 1416SOL     OW 4425   7.529   6.033   7.960 -0.5486  0.8822  0.4567
 1416SOL    HW1 4426   7.475   6.117   7.954  0.3518  1.3291 -2.6482
 1416SOL    HW2 4427   7.595   6.029   7.885  1.8108 -1.0232  2.4430
 1417SOL     OW 4428   1.904   4.420   5.687 -0.3352 -0.2689  0.7608
 1417SOL    HW1 4429   1.927   4.450   5.595 -1.8941  0.2519  0.5051
 1417SOL    HW2 4430   1.943   4.329   5.704 -2.1097 -1.5384 -1.3911
 1418SOL     OW 4431   0.295   2.536   7.400 -0.2323 -0.6084 -0.3599
 1418SOL    HW1 4432   0.323   2.615   7.344 -1.0080  0.0960  0.2222
 1418SOL    HW2 4433   0.205   2.554   7.440 -0.0161 -1.4155  0.5153
 1419SOL     OW 4434   1.441   4.935   8.743 -0.0246 -0.0473  0.2057
 1419SOL    HW1 4435   1.537   4.931   8.714  0.0218 -0.3158  0.3883
 1419SOL    HW2 4436   1.407   4.842   8.755 -0.3182  0.0479  0.1136
 1420SOL     OW 4437   8.014   0.541   6.175  0.2429 -0.1264 -0.0842
 1420SOL    HW1 4438   8.003   0.447   6.210  0.1864 -0.8630 -1.9759
 1420SOL    HW2 4439   7.926   0.589   6.183 -0.3962 -1.0440 -1.2903
 1421SOL     OW 4440   5.978   7.455   1.746 -0.6454 -0.5091 -0.1579
 1421SOL    HW1 4441   5.974   7.369   1.797 -1.4916 -1.1572 -1.2725
 1421SOL    HW2 4442   5.904   7.458   1.679  1.7987 -0.8438 -3.1017
 1422SOL     OW 4443   4.782   4.448   4.739 -0.7543 -0.5576 -0.2202
 1422SOL    HW1 4444   4.802   4.402   4.652 -0.8880 -0.8258 -0.1094
 1422SOL    HW2 4445   4.756   4.380   4.807  0.8386 -0.5342  0.4681
 1423SOL     OW 4446   5.355   0.598   1.253  0.0515 -0.3601 -0.2836
 1423SOL    HW1 4447   5.278   0.657   1.230  0.5399  0.4682  0.1457
 1423SOL    HW2 4448   5.356   0.519   1.192  0.3037  0.8813 -1.9476
 1424SOL     OW 4449   3.677   0.527   7.859 -0.0275 -0.0515  0.3592
 1424SOL    HW1 4450   3.684   0.430   7.884 -1.9132 -0.1443  0.6600
 1424SOL    HW2 4451   3.730   0.544   7.776  0.2521 -1.3564  0.2543
 1425SOL     OW 4452   7.583   2.762   7.774 -0.0874 -1.0415  0.5863
 1425SOL    HW1 4453   7.624   2.852   7.766 -1.2340 -0.4958  0.6423
 1425SOL    HW2 4454   7.635   2.696   7.719 -1.1562  0.3317 -2.2332
 1426SOL     OW 4455   8.715   6.902   8.364 -0.3045  0.2225  0.6880
 1426SOL    HW1 4456   8.663   6.816   8.363 -0.7951  0.4152 -2.5347
 1426SOL    HW2 4457   8.659   6.973   8.406 -1.3358 -0.3151  0.2929
 1427SOL     OW 4458   2.462   1.129   6.322  0.1908  0.2168 -0.2334
 1427SOL    HW1 4459   2.541   1.088   6.276  1.1236  2.0352 -0.3601
 1427SOL    HW2 4460   2.487   1.152   6.416 -0.9909 -1.3963  0.5170
 1428SOL     OW 4461   7.608   3.099   0.961 -0.1878  0.0481 -0.1785
 1428SOL    HW1 4462   7.552   3.090   1.043  0.3908 -0.5863  0.1614
 1428SOL    HW2 4463   7.700   3.063   0.979 -0.1449 -0.3970 -1.2045
 1429SOL     OW 4464   3.690   0.309   6.196  0.7235  0.0848 -0.8029
 1429SOL    HW1 4465   3.724   0.272   6.282  2.0654  0.5323 -1.1079
 1429SOL    HW2 4466   3.616   0.374   6.214  0.5678 -0.2977 -0.0418
 1430SOL     OW 4467   4.157   3.304   2.586 -0.0052  0.5631  0.2134
 1430SOL    HW1 4468   4.202   3.279   2.672  0.7515 -0.2233 -0.3812
 1430SOL    HW2 4469   4.079   3.363   2.604  1.3108  2.0532  1.2928
 1431SOL     OW 4470   6.093   2.360   7.695  0.4834  0.0249  0.1632
 1431SOL    HW1 4471   6.100   2.460   7.695 -2.5730  0.3547  1.2245
 1431SOL    HW2 4472   6.092   2.327   7.600  2.1594  0.9041 -0.1878
 1432SOL     OW 4473   5.161   8.812   0.833  0.2472 -0.3692 -0.2886
 1432SOL    HW1 4474   5.094   8.820   0.907  0.4479 -0.1208 -0.1300
 1432SOL    HW2 4475   5.142   8.881   0.763 -0.2067 -0.8916 -0.6844
 1433SOL     OW 4476   4.835   7.239   0.178  0.9635  0.2227  0.6627
 1433SOL    HW1 4477   4.899   7.204   0.110 -0.7367  0.8958 -1.4035
 1433SOL    HW2 4478   4.811   7.165   0.242  0.0726 -1.4799 -1.5131
 1434SOL     OW 4479   6.961   1.934   3.283  0.6181 -0.2401  0.5927
 1434SOL    HW1 4480   6.993   1.858   3.339 -1.7868 -0.4117  1.8921
 1434SOL    HW2 4481   6.975   2.020   3.332 -0.8578 -0.3260  1.2175
 1435SOL     OW 4482   6.112   0.843   1.502  0.0864  0.3940  0.0313
 1435SOL    HW1 4483   6.029   0.889   1.534 -0.1984  0.2700 -0.5126
 1435SOL    HW2 4484   6.171   0.823   1.580  0.3961  2.0115  0.2527
 1436SOL     OW 4485   2.944   0.565   8.493 -0.4998  0.0959 -0.2424
 1436SOL    HW1 4486   3.030   0.609   8.519 -0.6201  0.9212 -1.2112
 1436SOL    HW2 4487   2.886   0.630   8.444 -0.5476 -1.2080 -2.0051
 1437SOL     OW 4488   4.062   0.505   3.925 -0.6086  0.0957 -0.0183
 1437SOL    HW1 4489   4.147   0.546   3.893 -0.1930 -0.9536 -0.2998
 1437SOL    HW2 4490   4.067   0.406   3.915 -1.6330 -0.0264  0.5320
 1438SOL     OW 4491   7.271   1.521   1.900 -0.3145 -0.6660  0.6337
 1438SOL    HW1 4492   7.340   1.515   1.972 -0.6332 -0.2739  0.9785
 1438SOL    HW2 4493   7.248   1.617   1.883 -1.6866 -0.8191  1.4232
 1439SOL     OW 4494   5.536   7.100   6.913  0.7021 -0.3232 -0.0190
 1439SOL    HW1 4495   5.619   7.076   6.963  2.1126  0.0635 -2.0591
 1439SOL    HW2 4496   5.553   7.096   6.814 -1.9728 -1.1079 -0.5366
 1440SOL     OW 4497   1.871   6.869   5.914  0.3274 -0.2204  1.0916
 1440SOL    HW1 4498   1.848   6.934   5.842  0.0916 -0.3229  1.0738
 1440SOL    HW2 4499   1.967   6.841   5.904  0.0409 -0.9482  0.2522
 1441SOL     OW 4500   7.721   6.420   8.101 -0.1839 -0.9947  0.7313
 1441SOL    HW1 4501   7.722   6.514   8.069 -0.6129 -0.7010  1.5415
 1441SOL    HW2 4502   7.722   6.358   8.023 -0.3397 -0.3144  0.1805
 1442SOL     OW 4503   7.299   7.714   4.479 -0.5946  0.5618 -0.0634
 1442SOL    HW1 4504   7.287   7.754   4.388  0.7482 -1.1902 -1.0682
 1442SOL    HW2 4505   7.227   7.646   4.496 -0.4108  0.3473 -0.1366
 1443SOL     OW 4506   3.070   7.393   0.756 -0.4535 -0.0931  0.2687
 1443SOL    HW1 4507   3.061   7.321   0.825  1.9850  0.5307  1.3425
 1443SOL    HW2 4508   3.133   7.363   0.684 -1.0480  0.2136 -0.3970
 1444SOL     OW 4509   0.694   2.671   4.310  0.2549  0.3396 -0.0036
 1444SOL    HW1 4510   0.630   2.617   4.256 -1.4319 -0.1465  2.3237
 1444SOL    HW2 4511   0.678   2.768   4.293  0.5093  0.1972 -1.1523
 1445SOL     OW 4512   2.851   6.615   3.039  0.2085  0.1941  0.1061
 1445SOL    HW1 4513   2.820   6.706   3.010 -1.0329 -0.8206 -2.0708
 1445SOL    HW2 4514   2.775   6.567   3.083 -0.0386 -0.7255 -1.2542
 1446SOL     OW 4515   5.464   7.390   0.124 -0.0114 -0.2514 -0.1285
 1446SOL    HW1 4516   5.418   7.378   0.036  0.4714 -2.2740 -0.1549
 1446SOL    HW2 4517   5.522   7.311   0.142 -0.5228 -0.1538  2.2704
 1447SOL     OW 4518   4.424   5.560   2.166  0.5941  0.5560  0.1557
 1447SOL    HW1 4519   4.485   5.531   2.239 -0.2123 -0.2057  0.5406
 1447SOL    HW2 4520   4.336   5.586   2.205 -0.4850 -1.6217 -0.6857
 1448SOL     OW 4521   4.499   8.475   1.978 -0.0845 -0.2125 -0.2289
 1448SOL    HW1 4522   4.484   8.513   1.886 -1.4421  1.1882  0.5098
 1448SOL    HW2 4523   4.449   8.530   2.045 -0.1170 -1.9176  1.2279
 1449SOL     OW 4524   5.168   2.754   8.801  0.0251  0.9252  0.3074
 1449SOL    HW1 4525   5.087   2.721   8.753  0.5614  1.0591 -0.7226
 1449SOL    HW2 4526   5.208   2.679   8.854  0.3967  0.2860 -0.8428
 1450SOL     OW 4527   4.818   1.361   6.597  0.9041 -0.0281 -0.0877
 1450SOL    HW1 4528   4.887   1.364   6.670  2.4748 -1.3878 -1.4239
 1450SOL    HW2 4529   4.727   1.366   6.637  1.7318  1.6517  1.7743
 1451SOL     OW 4530   3.205   8.542   3.754  0.5312  0.3537 -0.4265
 1451SOL    HW1 4531   3.127   8.556   3.694  0.8347  2.0392 -0.4804
 1451SOL    HW2 4532   3.269   8.478   3.711 -0.0409  0.2301 -1.1160
 1452SOL     OW 4533   0.133   0.713   2.032 -0.1603 -0.3585  0.0350
 1452SOL    HW1 4534   0.221   0.736   1.990 -0.5802  0.9552 -0.1684
 1452SOL    HW2 4535   0.135   0.736   2.129 -0.0583 -0.9806  0.1859
 1453SOL     OW 4536   8.287   5.295   6.781  0.2697  0.2622  0.4523
 1453SOL    HW1 4537   8.333   5.224   6.727 -1.2842 -0.0485 -0.5451
 1453SOL    HW2 4538   8.350   5.370   6.799  1.3588 -0.4625 -0.2282
 1454SOL     OW 4539   0.069   7.146   1.943  0.1730  0.5891  0.1042
 1454SOL    HW1 4540   0.053   7.088   2.023  0.4677 -0.0247 -0.2775
 1454SOL    HW2 4541   0.151   7.201   1.958 -0.0573  0.8460  0.4313
 1455SOL     OW 4542   4.946   7.902   7.689 -0.4857  0.2630  0.3243
 1455SOL    HW1 4543   4.935   7.816   7.739  0.2177  0.3799  0.6922
 1455SOL    HW2 4544   4.921   7.978   7.748 -0.7564  0.3349  0.1180
 1456SOL     OW 4545   8.487   7.719   6.124 -0.3265 -0.1230  0.2468
 1456SOL    HW1 4546   8.548   7.671   6.062  0.1409 -0.4432  0.9412
 1456SOL    HW2 4547   8.411   7.659   6.151 -1.4547  0.5472 -1.2828
 1457SOL     OW 4548   8.248   4.396   1.406 -0.3972  0.1652 -0.0101
 1457SOL    HW1 4549   8.195   4.327   1.357  1.5945 -0.9379 -0.7418
 1457SOL    HW2 4550   8.297   4.352   1.481  3.0198  0.0613 -2.0754
 1458SOL     OW 4551   7.016   8.553   3.634  0.1211  0.1151  0.3948
 1458SOL    HW1 4552   7.007   8.549   3.534  1.1292 -2.4458  0.3466
 1458SOL    HW2 4553   6.948   8.617   3.670 -0.3657  1.0096 -1.8907
 1459SOL     OW 4554   1.351   3.254   5.436 -0.0316 -0.3460 -0.3943
 1459SOL    HW1 4555   1.398   3.201   5.366 -2.0719 -1.9437 -0.6363
 1459SOL    HW2 4556   1.288   3.318   5.394 -0.5814 -0.6468 -0.0395
 1460SOL     OW 4557   5.906   8.224   0.788  0.1039  0.1516 -0.5267
 1460SOL    HW1 4558   5.901   8.252   0.884  0.3483  0.1317 -0.5063
 1460SOL    HW2 4559   5.848   8.144   0.773 -3.3174  2.5828 -1.3140
 1461SOL     OW 4560   5.810   1.138   1.005 -0.2675 -0.4706 -0.2616
 1461SOL    HW1 4561   5.720   1.174   1.031 -0.1406 -0.5110  0.2496
 1461SOL    HW2 4562   5.841   1.182   0.921 -0.3259  0.2738  0.0974
 1462SOL     OW 4563   1.981   6.295   1.752  0.0715 -0.3190  0.4752
 1462SOL    HW1 4564   2.048   6.222   1.739  0.0212 -0.1448 -0.8645
 1462SOL    HW2 4565   2.011   6.377   1.704  0.5001  0.8276  2.5704
 1463SOL     OW 4566   5.758   6.951   0.067  0.0541  0.0648  0.1125
 1463SOL    HW1 4567   5.700   6.992  -0.004  0.9011 -0.6443 -1.0338
 1463SOL    HW2 4568   5.808   7.023   0.115 -0.3728  0.5421 -0.1526
 1464SOL     OW 4569   0.092   3.049   7.947 -0.2207 -0.5200 -0.1970
 1464SOL    HW1 4570  -0.005   3.031   7.932  0.1144 -2.3114 -0.4005
 1464SOL    HW2 4571   0.104   3.100   8.032 -1.3673  0.3660 -0.5366
 1465SOL     OW 4572   5.717   2.945   2.252 -0.2795  0.2540  0.0444
 1465SOL    HW1 4573   5.732   2.928   2.349  0.2641 -0.1902 -0.1096
 1465SOL    HW2 4574   5.771   2.879   2.198  0.3934  1.2774 -0.5675
 1466SOL     OW 4575   0.655   5.268   8.446  0.7729 -0.0467  0.4947
 1466SOL    HW1 4576   0.715   5.284   8.525  0.4289 -0.6734  0.8965
 1466SOL    HW2 4577   0.602   5.350   8.427  0.7962  0.0842  0.9764
 1467SOL     OW 4578   2.991   5.111   8.380  0.7277  0.0224 -0.6134
 1467SOL    HW1 4579   2.993   5.015   8.352  2.4798 -0.8940  2.2320
 1467SOL    HW2 4580   3.077   5.136   8.423 -1.5102  1.0682  3.9651
 1468SOL     OW 4581   0.272   3.015   7.195 -0.0523 -0.0689 -0.3538
 1468SOL    HW1 4582   0.354   3.068   7.214  0.5379 -0.6822 -1.1386
 1468SOL    HW2 4583   0.231   2.984   7.281 -0.0073  1.0296  0.0840
 1469SOL     OW 4584   1.539   6.260   8.828  0.4896 -0.0261  0.0244
 1469SOL    HW1 4585   1.527   6.268   8.729  1.5149 -0.2310 -0.1288
 1469SOL    HW2 4586   1.498   6.339   8.873  0.7616  0.5001 -0.6312
 1470SOL     OW 4587   8.291   0.615   2.853  0.0836 -0.1696 -0.4645
 1470SOL    HW1 4588   8.213   0.599   2.913  0.5567 -1.3497 -0.1246
 1470SOL    HW2 4589   8.263   0.602   2.758 -0.0479 -1.0625 -0.3142
 1471SOL     OW 4590   3.036   4.323   7.931  0.6755  0.8790  0.4223
 1471SOL    HW1 4591   3.072   4.230   7.926  1.5832  1.1490  1.3064
 1471SOL    HW2 4592   3.097   4.385   7.881 -0.6180  0.8432 -1.2710
 1472SOL     OW 4593   6.462   6.408   2.775 -0.1283  0.5144 -0.6413
 1472SOL    HW1 4594   6.546   6.450   2.739  0.5524 -0.2809 -0.0186
 1472SOL    HW2 4595   6.440   6.326   2.722 -0.0439  0.2606 -0.2892
 1473SOL     OW 4596   7.876   7.565   1.710 -0.2122 -0.1207  0.6876
 1473SOL    HW1 4597   7.960   7.510   1.718 -1.4549 -2.0430  1.2139
 1473SOL    HW2 4598   7.867   7.623   1.790  0.3803 -0.2704  0.8696
 1474SOL     OW 4599   8.115   2.178   3.344  0.2968  0.1856 -0.8236
 1474SOL    HW1 4600   8.168   2.121   3.280  1.3372 -0.3635  0.4815
 1474SOL    HW2 4601   8.017   2.163   3.328  0.5365 -0.2546 -2.0019
 1475SOL     OW 4602   0.421   5.633   8.835  0.3358 -0.1608  0.0824
 1475SOL    HW1 4603   0.383   5.595   8.919 -1.3969  2.5593  0.6615
 1475SOL    HW2 4604   0.368   5.601   8.757 -1.0856  0.9445  0.5527
 1476SOL     OW 4605   0.291   7.143   5.564 -0.0848  0.0640  0.0990
 1476SOL    HW1 4606   0.275   7.099   5.476  0.0443  0.3485 -0.0686
 1476SOL    HW2 4607   0.295   7.243   5.552  0.1887  0.0899  0.3835
 1477SOL     OW 4608   0.532   1.764   3.359 -0.0765 -0.2814  0.4080
 1477SOL    HW1 4609   0.508   1.771   3.456 -0.2897 -1.3672  0.4411
 1477SOL    HW2 4610   0.489   1.683   3.320 -1.1272  0.8897 -0.9399
 1478SOL     OW 4611   8.036   8.426   4.603  0.0493 -0.0920 -0.7015
 1478SOL    HW1 4612   8.045   8.386   4.512  0.4163 -0.0763 -0.6730
 1478SOL    HW2 4613   7.946   8.469   4.612  0.4669  0.9997 -1.4918
 1479SOL     OW 4614   6.108   0.402   6.474 -0.0759 -0.6120 -0.2605
 1479SOL    HW1 4615   6.042   0.475   6.456  0.7981 -0.0373 -1.2220
 1479SOL    HW2 4616   6.059   0.319   6.502 -1.1620 -0.0386 -0.4173
 1480SOL     OW 4617   2.317   5.799   1.051  0.2286 -0.0808 -0.3972
 1480SOL    HW1 4618   2.321   5.710   1.006  0.9590 -1.9138  2.9480
 1480SOL    HW2 4619   2.243   5.800   1.118  2.2814  0.4738  2.0421
 1481SOL     OW 4620   5.433   8.799   1.339  0.0912  0.1091 -0.1051
 1481SOL    HW1 4621   5.412   8.741   1.261 -1.6546 -0.8296  0.9994
 1481SOL    HW2 4622   5.348   8.828   1.383  1.0068  1.4415  0.8673
 1482SOL     OW 4623   3.186   6.903   6.899 -0.4211  0.6641  0.1546
 1482SOL    HW1 4624   3.174   6.981   6.838 -1.5705 -0.7024 -1.4481
 1482SOL    HW2 4625   3.098   6.879   6.940 -0.1769 -0.0705  0.2715
 1483SOL     OW 4626   1.774   5.315   0.347  0.1055  0.2954 -0.3843
 1483SOL    HW1 4627   1.792   5.296   0.444  3.3853  0.1440 -0.9053
 1483SOL    HW2 4628   1.767   5.414   0.334 -0.9429  0.2948  0.0502
 1484SOL     OW 4629   5.991   2.186   4.677 -0.0621 -0.2125 -0.1747
 1484SOL    HW1 4630   6.008   2.088   4.669  0.1451 -0.1512 -0.4979
 1484SOL    HW2 4631   6.026   2.233   4.596  1.2551  0.3244  0.6705
 1485SOL     OW 4632   2.089   7.804   2.449 -0.3695 -0.1632  0.4157
 1485SOL    HW1 4633   2.041   7.826   2.534 -1.1730 -0.4237  0.0476
 1485SOL    HW2 4634   2.024   7.762   2.385 -0.0678  1.0846 -0.7540
 1486SOL     OW 4635   3.312   6.376   2.425 -0.4819 -0.7892  0.2507
 1486SOL    HW1 4636   3.233   6.393   2.366 -0.3786 -1.5075 -0.1043
 1486SOL    HW2 4637   3.282   6.339   2.512 -0.8391  2.2523  1.5688
 1487SOL     OW 4638   5.029   2.074   5.949  1.0525  0.2603  0.3395
 1487SOL    HW1 4639   4.995   1.997   6.002 -0.9378  0.8272 -0.0295
 1487SOL    HW2 4640   5.051   2.044   5.856  1.5740 -0.1088  0.5764
 1488SOL     OW 4641   5.257   1.044   1.892  0.2254 -0.8970 -0.0961
 1488SOL    HW1 4642   5.317   1.017   1.967 -0.5433  0.1228  0.9151
 1488SOL    HW2 4643   5.217   1.134   1.911 -0.8286 -1.0937 -1.2302
 1489SOL     OW 4644   2.930   3.688   0.532 -0.2038 -0.2489  0.1127
 1489SOL    HW1 4645   2.938   3.589   0.522  2.3211 -0.0507 -0.3553
 1489SOL    HW2 4646   2.845   3.710   0.580 -0.6035 -2.6470  0.6001
 1490SOL     OW 4647   6.396   4.063   4.087 -0.6000  0.5425 -0.1456
 1490SOL    HW1 4648   6.363   4.047   4.180  0.4650  1.8073  0.4890
 1490SOL    HW2 4649   6.492   4.093   4.091 -0.0619 -0.8220 -1.7583
 1491SOL     OW 4650   4.950   2.834   7.680  0.0485 -0.1011  0.0350
 1491SOL    HW1 4651   4.902   2.748   7.667 -0.6725  0.5274 -1.8999
 1491SOL    HW2 4652   4.993   2.862   7.594  0.6480  1.2431  0.7301
 1492SOL     OW 4653   6.043   6.490   5.743 -0.0338 -0.4817  0.2504
 1492SOL    HW1 4654   6.128   6.463   5.789 -0.1530 -1.5645 -0.1425
 1492SOL    HW2 4655   5.994   6.409   5.713  0.5390  0.1121 -2.7130
 1493SOL     OW 4656   7.745   3.470   7.668  0.3229 -0.6224 -0.6318
 1493SOL    HW1 4657   7.730   3.377   7.633  1.9315 -0.4507 -1.8988
 1493SOL    HW2 4658   7.764   3.466   7.766  1.9280 -1.8382 -0.9497
 1494SOL     OW 4659   7.304   2.437   6.138 -0.1177  0.1506  0.1610
 1494SOL    HW1 4660   7.228   2.470   6.195 -0.3026  2.7816 -1.4480
 1494SOL    HW2 4661   7.389   2.443   6.190 -0.6909 -0.6690  1.2304
 1495SOL     OW 4662   6.330   7.341   6.173 -0.1876 -0.1201 -0.6591
 1495SOL    HW1 4663   6.377   7.420   6.133  1.0970 -0.3305  0.3638
 1495SOL    HW2 4664   6.233   7.362   6.183 -0.0479  0.9500 -1.3164
 1496SOL     OW 4665   5.771   5.640   3.930  0.1666 -1.0550 -0.6812
 1496SOL    HW1 4666   5.807   5.558   3.975  0.4699 -0.1695  0.7678
 1496SOL    HW2 4667   5.751   5.709   3.999  0.7116  0.4135 -1.9476
 1497SOL     OW 4668   8.746   7.262   0.488 -0.5773 -0.1894 -0.2526
 1497SOL    HW1 4669   8.841   7.290   0.507 -0.0092 -1.7158 -0.6392
 1497SOL    HW2 4670   8.702   7.329   0.429  0.8697 -0.3216 -1.5416
 1498SOL     OW 4671   3.750   0.610   5.472 -0.3838 -0.6839  0.1315
 1498SOL    HW1 4672   3.804   0.690   5.447 -0.9140 -0.3561  0.0232
 1498SOL    HW2 4673   3.766   0.587   5.568 -1.4130  0.5153  0.6269
 1499SOL     OW 4674   1.641   2.284   5.804  0.3141  0.2789  0.2056
 1499SOL    HW1 4675   1.596   2.195   5.809 -0.1899  0.4703 -0.7303
 1499SOL    HW2 4676   1.599   2.347   5.870  0.6049 -0.1359  0.7956
 1500SOL     OW 4677   5.630   3.798   3.548  0.0719 -0.2000  0.1316
 1500SOL    HW1 4678   5.637   3.892   3.517 -0.5765 -0.3582 -0.5184
 1500SOL    HW2 4679   5.626   3.795   3.648 -0.8427  0.5212  0.1217
 1501SOL     OW 4680   8.324   4.990   0.340  0.9223  0.0759  0.3979
 1501SOL    HW1 4681   8.368   5.072   0.304  0.4758  0.3927  0.5768
 1501SOL    HW2 4682   8.226   5.005   0.350  0.6132 -0.9394 -0.8576
 1502SOL     OW 4683   4.993   1.505   4.463 -0.2581 -0.2239 -0.5538
 1502SOL    HW1 4684   5.023   1.508   4.558 -0.8283 -0.1003 -0.3757
 1502SOL    HW2 4685   5.058   1.451   4.409  0.1829 -0.1090 -0.1398
 1503SOL     OW 4686   2.994   7.705   8.587  0.5055 -0.3231  0.4418
 1503SOL    HW1 4687   3.014   7.614   8.549  3.0722  0.3730 -0.0381
 1503SOL    HW2 4688   2.923   7.749   8.532  2.7661 -0.1005 -2.5925
 1504SOL     OW 4689   6.521   6.652   8.281  0.0930  0.6664  0.4209
 1504SOL    HW1 4690   6.501   6.634   8.185 -0.3170  0.1756  0.5957
 1504SOL    HW2 4691   6.601   6.599   8.309 -0.2073  0.2721  0.5350
 1505SOL     OW 4692   5.083   8.713   4.738 -0.2719 -0.1049 -0.3160
 1505SOL    HW1 4693   5.143   8.750   4.808  0.6656 -0.9864 -0.6314
 1505SOL    HW2 4694   5.137   8.684   4.659 -1.3384  1.3031 -1.6374
 1506SOL     OW 4695   1.903   0.194   7.213  0.0522 -0.1854 -0.1082
 1506SOL    HW1 4696   1.997   0.201   7.178  0.1238 -1.1459 -0.1271
 1506SOL    HW2 4697   1.854   0.279   7.194  1.3968  0.9616  1.3113
 1507SOL     OW 4698   8.046   0.695   4.184  0.1576 -0.3337 -0.4998
 1507SOL    HW1 4699   8.103   0.751   4.244 -1.0507  1.0485 -0.5698
 1507SOL    HW2 4700   8.096   0.674   4.101  0.7366  0.4724 -0.3731
 1508SOL     OW 4701   5.563   3.082   3.545 -0.9533 -0.2101  0.4608
 1508SOL    HW1 4702   5.610   3.168   3.525  0.4597 -0.8653  0.8401
 1508SOL    HW2 4703   5.534   3.082   3.641 -1.3313 -0.0076  0.3527
 1509SOL     OW 4704   2.732   6.283   6.210 -0.0556 -0.2755 -0.2557
 1509SOL    HW1 4705   2.688   6.219   6.273  1.5284  1.2251  2.5931
 1509SOL    HW2 4706   2.811   6.239   6.167 -0.5315 -1.0102 -0.3830
 1510SOL     OW 4707   4.023   1.229   1.153 -0.6112  0.0062 -0.1593
 1510SOL    HW1 4708   3.987   1.299   1.091 -1.8309  0.0918  0.6231
 1510SOL    HW2 4709   3.958   1.154   1.161 -0.3512 -0.1309  0.7984
 1511SOL     OW 4710   8.055   7.815   3.067  0.3045 -0.4283  0.3540
 1511SOL    HW1 4711   8.059   7.740   3.002  0.5560  0.0460 -0.1936
 1511SOL    HW2 4712   7.959   7.840   3.084  0.2600  0.0823 -0.5962
 1512SOL     OW 4713   7.281   8.201   6.189  0.3075 -0.1514  0.0711
 1512SOL    HW1 4714   7.373   8.176   6.160  0.2355 -0.0376 -0.2686
 1512SOL    HW2 4715   7.278   8.299   6.209  0.8662 -0.5596  2.4699
 1513SOL     OW 4716   4.111   1.164   0.565  0.4833 -0.1367 -0.2465
 1513SOL    HW1 4717   4.081   1.210   0.649 -0.5524  0.3081 -0.8354
 1513SOL    HW2 4718   4.207   1.137   0.574  1.0165  1.7910  0.2884
 1514SOL     OW 4719   7.198   3.662   6.508 -0.0636 -0.0301  0.4486
 1514SOL    HW1 4720   7.170   3.570   6.479 -1.4685  0.7662 -0.9095
 1514SOL    HW2 4721   7.147   3.688   6.590  0.3221 -0.4363  0.8250
 1515SOL     OW 4722   0.841   0.834   6.573 -0.0709 -0.2472  0.1068
 1515SOL    HW1 4723   0.886   0.748   6.596  1.0692  0.5227  0.9030
 1515SOL    HW2 4724   0.779   0.820   6.497 -1.9815 -2.3483  1.9093
 1516SOL     OW 4725   0.747   3.191   0.016 -0.1027  0.3097  1.2270
 1516SOL    HW1 4726   0.778   3.279  -0.022 -0.6931 -0.2946 -0.7513
 1516SOL    HW2 4727   0.652   3.174  -0.011  0.2777 -1.3416  0.8467
 1517SOL     OW 4728   7.407   0.889   1.941 -0.4744 -0.1337  1.0020
 1517SOL    HW1 4729   7.318   0.890   1.987 -1.4215  1.2674 -0.7210
 1517SOL    HW2 4730   7.394   0.899   1.843  1.5629 -1.1375  0.5722
 1518SOL     OW 4731   5.908   5.631   0.026 -0.1851  0.0315  0.1734
 1518SOL    HW1 4732   5.824   5.647   0.078 -1.6307 -0.7018 -1.8137
 1518SOL    HW2 4733   5.899   5.546  -0.027  0.7959  1.1930 -1.9866
 1519SOL     OW 4734   2.457   0.259   5.149 -0.1984  0.1957 -0.1222
 1519SOL    HW1 4735   2.404   0.255   5.064 -0.7634 -0.4354  0.2444
 1519SOL    HW2 4736   2.510   0.344   5.151  0.5747 -0.2186 -1.5328
 1520SOL     OW 4737   2.319   7.584   4.595  0.8221  0.1818 -0.1713
 1520SOL    HW1 4738   2.322   7.493   4.636  2.1149  0.6354  0.8168
 1520SOL    HW2 4739   2.224   7.610   4.577  0.2684 -0.4817  1.5656
 1521SOL     OW 4740   5.741   1.164   4.342 -0.2712 -0.3554  0.6818
 1521SOL    HW1 4741   5.675   1.153   4.416  0.3276  1.1639  1.4924
 1521SOL    HW2 4742   5.761   1.261   4.330 -0.3194 -0.5690 -1.4745
 1522SOL     OW 4743   1.944   2.332   3.732  0.2968 -0.0411  0.1197
 1522SOL    HW1 4744   1.949   2.339   3.832 -0.9844 -0.2176  0.2062
 1522SOL    HW2 4745   1.915   2.240   3.707  0.9240 -0.0926 -0.4383
 1523SOL     OW 4746   3.449   7.134   8.513  0.6245  0.2392  0.3138
 1523SOL    HW1 4747   3.528   7.085   8.474  0.7489  0.3596  0.4166
 1523SOL    HW2 4748   3.398   7.071   8.572  0.2719 -0.0304 -0.2632
 1524SOL     OW 4749   5.601   1.759   0.726  0.4272  0.1078 -0.0208
 1524SOL    HW1 4750   5.579   1.685   0.663  1.4979  0.3096 -0.6511
 1524SOL    HW2 4751   5.520   1.783   0.778  0.1505 -1.8188  0.5298
 1525SOL     OW 4752   1.312   3.224   4.167  0.1054  0.0747  0.0898
 1525SOL    HW1 4753   1.332   3.214   4.070 -0.3923 -0.6717  0.0523
 1525SOL    HW2 4754   1.389   3.191   4.221  0.4459  0.6343 -0.0452
 1526SOL     OW 4755   3.141   1.417   8.396  0.4945  0.5806  0.4003
 1526SOL    HW1 4756   3.185   1.472   8.325  0.4667  0.2860  0.1552
 1526SOL    HW2 4757   3.194   1.334   8.412 -0.4637 -0.2528 -0.5783
 1527SOL     OW 4758   5.591   6.486   1.202  0.5064  0.0908 -0.1899
 1527SOL    HW1 4759   5.601   6.566   1.143  0.9958  0.0663 -0.1423
 1527SOL    HW2 4760   5.549   6.514   1.289  0.4863  0.2585 -0.2532
 1528SOL     OW 4761   4.701   0.640   6.596 -0.4795  0.2451  0.0250
 1528SOL    HW1 4762   4.740   0.559   6.641  1.8513  0.9297 -0.6008
 1528SOL    HW2 4763   4.609   0.657   6.632  0.2832 -0.6920  2.6685
 1529SOL     OW 4764   6.779   3.324   3.677  0.1051  0.1931  0.5510
 1529SOL    HW1 4765   6.846   3.398   3.687  0.1947 -0.0745  2.1306
 1529SOL    HW2 4766   6.811   3.260   3.607  2.7249 -1.1529  2.7736
 1530SOL     OW 4767   8.250   5.205   1.550 -0.0733 -0.2351  0.2587
 1530SOL    HW1 4768   8.217   5.198   1.644  1.4872  0.3967  0.8770
 1530SOL    HW2 4769   8.345   5.237   1.550 -0.7464  2.0291 -1.6108
 1531SOL     OW 4770   3.006   3.644   2.405  0.3022  0.5072 -0.2846
 1531SOL    HW1 4771   2.950   3.609   2.330 -0.9522  1.0927  0.3314
 1531SOL    HW2 4772   3.050   3.729   2.376 -1.1748  1.4066  0.0016
 1532SOL     OW 4773   2.948   0.046   0.811  0.1767  0.0214  0.4585
 1532SOL    HW1 4774   2.884   0.087   0.877  1.0700  0.5929  0.9840
 1532SOL    HW2 4775   3.026   0.007   0.860  1.8317  2.1534 -0.3112
 1533SOL     OW 4776   1.803   0.646   4.409 -0.1157  0.0067 -0.1434
 1533SOL    HW1 4777   1.788   0.609   4.318  1.2625 -0.6102 -0.1517
 1533SOL    HW2 4778   1.859   0.728   4.403  0.5876 -0.4332  0.1724
 1534SOL     OW 4779   5.185   2.814   3.871  0.2827  0.5887 -0.1865
 1534SOL    HW1 4780   5.135   2.829   3.956  0.4465  1.9803 -0.3076
 1534SOL    HW2 4781   5.121   2.807   3.795  0.0851 -1.4660  0.1165
 1535SOL     OW 4782   2.614   2.012   2.981 -0.4277 -0.4471 -0.5758
 1535SOL    HW1 4783   2.607   2.098   3.030 -0.4761 -1.4779  1.3128
 1535SOL    HW2 4784   2.551   2.013   2.903 -0.9328  0.9479 -0.1759
 1536SOL     OW 4785   3.010   4.685   4.374 -0.0713  0.3637  0.0484
 1536SOL    HW1 4786   2.939   4.663   4.442 -2.3599  1.3888 -1.8691
 1536SOL    HW2 4787   3.097   4.699   4.421 -1.3189  0.0812  2.6544
 1537SOL     OW 4788   0.649   1.263   6.907 -0.8512  0.4361 -0.1476
 1537SOL    HW1 4789   0.720   1.239   6.974  1.0364  0.2023 -2.1329
 1537SOL    HW2 4790   0.664   1.357   6.876  1.4076 -0.9128 -3.7219
 1538SOL     OW 4791   5.273   6.773   2.279 -0.1772  0.3321  0.4273
 1538SOL    HW1 4792   5.273   6.696   2.342 -2.1980 -0.6402 -0.6475
 1538SOL    HW2 4793   5.365   6.789   2.245  0.1861 -2.0911  0.1315
 1539SOL     OW 4794   4.425   8.507   0.838 -0.2806 -0.2448 -0.0437
 1539SOL    HW1 4795   4.334   8.470   0.854 -0.1501 -0.8373 -0.5947
 1539SOL    HW2 4796   4.427   8.554   0.749  0.1291 -0.8715 -0.3761
 1540SOL     OW 4797   4.778   7.973   3.291 -0.1052  0.1319  0.4326
 1540SOL    HW1 4798   4.721   7.983   3.373  1.5012  1.4074  1.4377
 1540SOL    HW2 4799   4.762   8.051   3.230  0.1650  0.2177  0.4709
 1541SOL     OW 4800   7.010   3.699   3.079 -0.8687 -0.0290 -0.4505
 1541SOL    HW1 4801   7.086   3.733   3.134 -0.7240 -2.1880  0.7608
 1541SOL    HW2 4802   6.925   3.737   3.113 -0.6201  0.0158  0.1277
 1542SOL     OW 4803   8.307   4.241   0.226 -0.4263 -0.3558 -0.2254
 1542SOL    HW1 4804   8.367   4.302   0.276  1.2980  0.1961 -2.7753
 1542SOL    HW2 4805   8.331   4.146   0.246  0.5649 -0.1422 -0.3511
 1543SOL     OW 4806   7.627   4.428   1.310  0.0706  0.0549 -0.4206
 1543SOL    HW1 4807   7.685   4.458   1.234 -0.1919  0.8635 -0.3086
 1543SOL    HW2 4808   7.581   4.507   1.350  1.9055  0.0061  2.0225
 1544SOL     OW 4809   2.655   7.638   4.828 -0.2823  0.0039  0.1593
 1544SOL    HW1 4810   2.577   7.577   4.813  0.1351 -0.3480 -0.6048
 1544SOL    HW2 4811   2.730   7.587   4.871  1.0653 -0.7827 -2.8618
 1545SOL     OW 4812   4.193   2.246   2.937 -0.2988 -0.5564  0.7310
 1545SOL    HW1 4813   4.248   2.162   2.936 -0.2624 -0.5703  2.1489
 1545SOL    HW2 4814   4.245   2.319   2.981 -0.0335  0.4593 -1.1485
 1546SOL     OW 4815   5.130   3.185   7.160 -0.3361 -0.6796 -0.5447
 1546SOL    HW1 4816   5.072   3.265   7.146  0.5727  0.0494 -0.2475
 1546SOL    HW2 4817   5.075   3.110   7.196 -0.8850  0.3696  0.9158
 1547SOL     OW 4818   1.039   5.980   7.274  0.1965  0.0771  0.1659
 1547SOL    HW1 4819   1.066   5.942   7.362  0.6652  1.0838  0.4783
 1547SOL    HW2 4820   0.966   6.048   7.288  1.9533  2.0621  0.1214
 1548SOL     OW 4821   6.232   6.473   3.924  0.1348 -0.1859 -0.1322
 1548SOL    HW1 4822   6.248   6.376   3.943 -0.3938 -0.0794  0.9264
 1548SOL    HW2 4823   6.141   6.484   3.884  0.4762 -0.1924 -0.9297
 1549SOL     OW 4824   5.561   0.946   7.548  0.4318  0.1173  0.5877
 1549SOL    HW1 4825   5.617   0.955   7.466 -0.1015 -0.7570  0.1102
 1549SOL    HW2 4826   5.548   1.036   7.590  1.2961  0.4742  0.1205
 1550SOL     OW 4827   6.799   3.542   0.804  0.1299 -1.0285  0.4313
 1550SOL    HW1 4828   6.830   3.577   0.892  0.0692 -0.8302  0.3751
 1550SOL    HW2 4829   6.718   3.593   0.774  2.2840  1.5341 -1.5094
 1551SOL     OW 4830   5.984   5.226   8.411  0.3245 -0.0272  0.2137
 1551SOL    HW1 4831   5.954   5.131   8.418 -1.9867  0.5785 -0.4703
 1551SOL    HW2 4832   6.025   5.255   8.497  2.5020 -2.0244 -0.0264
 1552SOL     OW 4833   7.445   2.415   5.631 -0.0896 -0.0522  0.1009
 1552SOL    HW1 4834   7.401   2.445   5.716 -1.5429  0.5400 -0.8331
 1552SOL    HW2 4835   7.375   2.393   5.563  1.0539 -0.6968 -0.9002
 1553SOL     OW 4836   0.708   2.643   7.993  0.2404  0.0686 -0.0415
 1553SOL    HW1 4837   0.609   2.644   7.983  0.1072 -0.6021  1.0545
 1553SOL    HW2 4838   0.743   2.736   7.979 -0.6050  0.4305  0.1701
 1554SOL     OW 4839   6.836   5.905   7.534 -0.0158  0.2047 -0.4295
 1554SOL    HW1 4840   6.801   5.920   7.442 -1.5771  0.7671  0.2064
 1554SOL    HW2 4841   6.785   5.830   7.577 -0.9080  1.4250  0.7328
 1555SOL     OW 4842   0.151   1.885   3.871  0.0631  0.5510 -0.2612
 1555SOL    HW1 4843   0.210   1.806   3.855 -0.5240  0.3319 -1.4620
 1555SOL    HW2 4844   0.195   1.948   3.936  0.1941 -1.1057  1.3236
 1556SOL     OW 4845   3.422   2.338   5.295  0.1010 -0.0066 -0.0233
 1556SOL    HW1 4846   3.518   2.335   5.322  0.9598  0.1792 -2.7729
 1556SOL    HW2 4847   3.405   2.419   5.240 -1.6297 -0.0760  0.3510
 1557SOL     OW 4848   1.526   6.088   5.115 -0.1296 -0.5481 -0.0784
 1557SOL    HW1 4849   1.614   6.042   5.111 -0.8755 -2.2958  1.9743
 1557SOL    HW2 4850   1.487   6.093   5.023  2.0442  0.2467 -1.0235
 1558SOL     OW 4851   8.787   8.251   0.018  0.1605  0.1446 -0.2150
 1558SOL    HW1 4852   8.736   8.298  -0.054 -0.8132  2.5877  1.9218
 1558SOL    HW2 4853   8.745   8.162   0.037  0.5980 -0.6717 -2.7406
 1559SOL     OW 4854   1.880   4.384   1.018  0.4152 -0.3340  0.2424
 1559SOL    HW1 4855   1.957   4.321   1.013 -0.0642 -0.8830 -0.5499
 1559SOL    HW2 4856   1.795   4.335   0.998  0.1925  0.8387 -2.0367
 1560SOL     OW 4857   5.654   8.512   4.918 -0.5680  0.6234  0.9611
 1560SOL    HW1 4858   5.626   8.428   4.964 -0.8151  0.3561  0.3342
 1560SOL    HW2 4859   5.724   8.558   4.972 -0.2856 -0.0895  1.2135
 1561SOL     OW 4860   4.121   6.316   3.797  0.3053  0.5920 -0.1472
 1561SOL    HW1 4861   4.023   6.298   3.808  0.4453 -0.9808 -1.1505
 1561SOL    HW2 4862   4.146   6.307   3.701  1.8880 -1.7803  0.3906
 1562SOL     OW 4863   6.442   3.275   8.086 -0.3751  0.0245  0.6513
 1562SOL    HW1 4864   6.500   3.325   8.022  0.7210 -1.4222  0.4507
 1562SOL    HW2 4865   6.362   3.238   8.038 -0.4582  0.3884  0.5090
 1563SOL     OW 4866   7.035   4.260   3.589 -0.0323 -0.2905  0.0372
 1563SOL    HW1 4867   7.114   4.268   3.528  0.6484  1.1999  1.0550
 1563SOL    HW2 4868   7.040   4.172   3.637  1.3939  0.0570  0.5808
 1564SOL     OW 4869   7.871   8.571   7.790 -0.0121  0.5399 -0.5327
 1564SOL    HW1 4870   7.806   8.502   7.759 -0.8506  0.5888  1.0162
 1564SOL    HW2 4871   7.944   8.528   7.843  0.1532  0.7096 -0.6202
 1565SOL     OW 4872   7.590   3.264   0.272 -0.3715 -0.6592 -0.8377
 1565SOL    HW1 4873   7.499   3.231   0.299 -0.5775 -0.9931 -1.8801
 1565SOL    HW2 4874   7.634   3.196   0.214  0.5569 -0.4990 -0.3289
 1566SOL     OW 4875   5.554   1.191   7.662  0.0392 -0.1907 -0.4279
 1566SOL    HW1 4876   5.570   1.264   7.596  0.1342  0.5706  0.4258
 1566SOL    HW2 4877   5.485   1.219   7.728  0.6460 -0.5462  0.3854
 1567SOL     OW 4878   6.014   8.372   7.689  0.3218  0.4204  0.2657
 1567SOL    HW1 4879   6.056   8.456   7.724 -1.1160  1.7092 -0.9750
 1567SOL    HW2 4880   5.936   8.347   7.746  1.5129 -0.8573  1.4037
 1568SOL     OW 4881   8.632   8.011   0.044  0.4719 -0.3364 -0.4572
 1568SOL    HW1 4882   8.667   7.917   0.045  0.3562 -0.3776 -0.2679
 1568SOL    HW2 4883   8.579   8.026  -0.040 -1.3664 -1.1269  0.5046
 1569SOL     OW 4884   3.280   3.209   6.325 -1.0876  0.5247 -0.6759
 1569SOL    HW1 4885   3.342   3.239   6.398  1.8550  0.7358 -3.0789
 1569SOL    HW2 4886   3.261   3.112   6.336 -1.4154  0.7354  0.8258
 1570SOL     OW 4887   5.856   4.770   2.695 -0.1316  0.2495 -0.4779
 1570SOL    HW1 4888   5.915   4.760   2.616  0.7372  1.1104  0.0331
 1570SOL    HW2 4889   5.877   4.700   2.763 -1.2661 -0.8460 -1.2122
 1571SOL     OW 4890   3.385   5.340   0.844 -0.1540  0.3986  0.2932
 1571SOL    HW1 4891   3.352   5.419   0.793  0.2592  0.2170 -0.2661
 1571SOL    HW2 4892   3.484   5.332   0.834 -0.1262  0.1108  0.7685
 1572SOL     OW 4893   6.288   0.052   8.576  0.3118 -0.4020 -0.0864
 1572SOL    HW1 4894   6.287  -0.039   8.618 -0.5330 -0.0783  0.6320
 1572SOL    HW2 4895   6.194   0.080   8.555  0.6359 -0.0693 -1.1413
 1573SOL     OW 4896   1.143   6.773   8.260 -0.0497 -0.0770 -0.2562
 1573SOL    HW1 4897   1.058   6.798   8.214 -1.2175 -0.1061  1.7481
 1573SOL    HW2 4898   1.190   6.856   8.290 -0.6623 -0.0856  0.7865
 1574SOL     OW 4899   1.649   7.162   1.494  0.0844 -0.4465  0.0314
 1574SOL    HW1 4900   1.602   7.194   1.412  0.2514 -1.7090 -0.5733
 1574SOL    HW2 4901   1.605   7.080   1.529  0.8366 -0.6955  0.4274
 1575SOL     OW 4902   2.282   0.709   0.772  0.9620  0.4315  0.1346
 1575SOL    HW1 4903   2.215   0.747   0.835  0.0228  1.2026 -1.2824
 1575SOL    HW2 4904   2.354   0.776   0.754 -0.4154  1.4579 -1.9545
 1576SOL     OW 4905   8.697   5.095   2.890 -0.1731 -1.1907 -0.6619
 1576SOL    HW1 4906   8.742   5.160   2.828 -1.2012  0.4511  0.2378
 1576SOL    HW2 4907   8.707   5.002   2.853  0.0666 -0.3937 -2.7812
 1577SOL     OW 4908   5.687   3.481   3.183  0.0538 -0.0322 -0.7294
 1577SOL    HW1 4909   5.711   3.400   3.130  1.0007  0.6575 -1.3712
 1577SOL    HW2 4910   5.589   3.501   3.171 -0.6184 -2.0594  0.8160
 1578SOL     OW 4911   2.693   7.228   3.216  0.1246 -0.0354 -0.1270
 1578SOL    HW1 4912   2.790   7.205   3.204  0.0222 -0.4189 -0.2305
 1578SOL    HW2 4913   2.669   7.301   3.152  0.8640  1.5597  1.3606
 1579SOL     OW 4914   3.166   7.200   2.212  0.4620  0.2752 -0.2302
 1579SOL    HW1 4915   3.209   7.176   2.299 -0.4055 -0.3672  0.0361
 1579SOL    HW2 4916   3.199   7.289   2.182  0.2145  0.8429  1.1270
 1580SOL     OW 4917   1.090   5.462   0.146  0.0448  0.5744 -0.2160
 1580SOL    HW1 4918   1.107   5.428   0.053  1.3564 -1.3299  0.6589
 1580SOL    HW2 4919   1.085   5.385   0.209 -2.1197  1.7262  1.1690
 1581SOL     OW 4920   6.005   5.606   7.003 -0.0514  0.0768 -0.1602
 1581SOL    HW1 4921   6.047   5.696   6.991 -0.3553  0.0725 -1.5102
 1581SOL    HW2 4922   5.914   5.618   7.044  0.3086  0.2831  0.6018
 1582SOL     OW 4923   3.024   2.354   0.630 -0.4082 -0.3250 -0.8494
 1582SOL    HW1 4924   2.955   2.427   0.640 -1.7487 -1.3539 -2.1495
 1582SOL    HW2 4925   3.033   2.305   0.716 -0.8197  0.2279 -0.4815
 1583SOL     OW 4926   2.582   3.251   4.050  0.4700 -0.0162  0.1200
 1583SOL    HW1 4927   2.569   3.349   4.065  2.5776  0.6907 -2.0288
 1583SOL    HW2 4928   2.680   3.230   4.050  0.3005 -1.3605 -3.3196
 1584SOL     OW 4929   8.091   7.362   6.354 -0.0260 -0.1080 -0.4531
 1584SOL    HW1 4930   8.025   7.399   6.420  2.1477  2.6425  0.3603
 1584SOL    HW2 4931   8.160   7.310   6.403  2.2182  2.8504 -0.1911
 1585SOL     OW 4932   5.594   8.136   7.944 -0.5478  0.2095  0.4006
 1585SOL    HW1 4933   5.577   8.231   7.918 -1.1559 -0.1396 -0.5303
 1585SOL    HW2 4934   5.662   8.097   7.882 -1.5856 -0.4655 -0.3460
 1586SOL     OW 4935   0.018   6.474   4.515 -0.1466  0.0843  0.1138
 1586SOL    HW1 4936   0.089   6.413   4.479  0.5981 -0.2679  2.0510
 1586SOL    HW2 4937  -0.068   6.424   4.523 -0.3810  0.2255 -1.2852
 1587SOL     OW 4938   7.743   2.353   8.714 -0.0101  0.4452  0.4529
 1587SOL    HW1 4939   7.651   2.375   8.746 -0.7462 -0.4180 -0.9357
 1587SOL    HW2 4940   7.744   2.260   8.676  0.7408  1.3348 -1.9356
 1588SOL     OW 4941   7.378   8.768   7.537 -0.3335 -0.3436 -0.8798
 1588SOL    HW1 4942   7.317   8.845   7.518  0.0214 -0.1366 -1.1879
 1588SOL    HW2 4943   7.345   8.688   7.486 -1.9665 -1.0234  1.1068
 1589SOL     OW 4944   3.243   8.254   1.630 -0.2466 -0.1951 -0.2515
 1589SOL    HW1 4945   3.261   8.239   1.727  1.4676 -1.1961 -0.6875
 1589SOL    HW2 4946   3.164   8.314   1.620  0.3164  0.9837  1.7823
 1590SOL     OW 4947   1.559   5.481   0.688  0.5038 -0.1441 -0.0402
 1590SOL    HW1 4948   1.529   5.555   0.749  2.4300  2.7790 -2.3523
 1590SOL    HW2 4949   1.629   5.427   0.734  2.8085  2.7428  0.1609
 1591SOL     OW 4950   7.181   5.853   0.752  0.4090 -0.2836 -0.4727
 1591SOL    HW1 4951   7.274   5.877   0.721  1.2213 -2.1191  0.3968
 1591SOL    HW2 4952   7.150   5.772   0.703 -1.5541  1.3162 -2.0771
 1592SOL     OW 4953   2.818   6.556   5.147 -1.1717  0.5281 -0.2190
 1592SOL    HW1 4954   2.811   6.479   5.084 -1.6777  1.6372 -1.5581
 1592SOL    HW2 4955   2.849   6.523   5.236 -0.8082 -1.1284 -0.9224
 1593SOL     OW 4956   3.104   3.144   2.538  0.3597 -0.1860 -0.0753
 1593SOL    HW1 4957   3.017   3.147   2.587  0.0864 -1.9807 -0.3783
 1593SOL    HW2 4958   3.088   3.157   2.440  0.4025 -0.6988 -0.1527
 1594SOL     OW 4959   8.215   0.669   8.170 -0.5495 -0.1368 -0.0947
 1594SOL    HW1 4960   8.117   0.651   8.177 -0.4374 -0.7193  0.0612
 1594SOL    HW2 4961   8.258   0.598   8.115 -0.4947  1.1639 -1.8044
 1595SOL     OW 4962   3.538   3.362   3.376  0.2315  0.5820  0.3124
 1595SOL    HW1 4963   3.576   3.316   3.296  0.5339  0.1881  0.6774
 1595SOL    HW2 4964   3.488   3.296   3.433  0.2192  0.8075  0.5678
 1596SOL     OW 4965   6.983   6.334   5.584 -0.2089 -0.0484 -0.0415
 1596SOL    HW1 4966   6.934   6.389   5.651  1.8720  0.6215  1.0019
 1596SOL    HW2 4967   7.057   6.388   5.543  0.3057 -1.2937 -0.8522
 1597SOL     OW 4968   1.973   3.852   6.160 -0.2725  0.2402 -0.0850
 1597SOL    HW1 4969   1.934   3.837   6.251 -0.7137  0.6496 -0.2019
 1597SOL    HW2 4970   2.037   3.928   6.163  0.2047 -0.1641  0.0192
 1598SOL     OW 4971   5.611   7.232   1.035  0.3883 -0.2519  0.0227
 1598SOL    HW1 4972   5.613   7.292   0.956  0.9359 -0.3759 -0.0627
 1598SOL    HW2 4973   5.705   7.216   1.067  0.1221  0.5919  1.2891
 1599SOL     OW 4974   6.956   0.964   3.062 -0.1270  0.3304 -0.7277
 1599SOL    HW1 4975   7.015   1.037   3.097 -0.3130  0.1189  0.0302
 1599SOL    HW2 4976   6.874   1.004   3.022  0.8698  0.6978 -2.5692
 1600SOL     OW 4977   0.165   0.718   2.655  0.3370  0.1668 -0.1129
 1600SOL    HW1 4978   0.231   0.745   2.725 -2.8730  2.5418  2.2444
 1600SOL    HW2 4979   0.150   0.619   2.660 -1.4658  0.4481  4.4059
 1601SOL     OW 4980   0.770   4.495   4.289  0.0203 -0.2825  0.0995
 1601SOL    HW1 4981   0.772   4.583   4.243 -0.4330  0.1175  0.8249
 1601SOL    HW2 4982   0.749   4.508   4.386  0.7384 -1.1262  0.3796
 1602SOL     OW 4983   1.396   3.603   5.003  0.4711  0.1667 -0.1629
 1602SOL    HW1 4984   1.322   3.669   5.003 -0.6547 -1.0465 -1.6503
 1602SOL    HW2 4985   1.474   3.641   5.053 -1.4875  1.0338  2.4795
 1603SOL     OW 4986   8.804   7.983   1.214  0.5336 -0.0115  0.4627
 1603SOL    HW1 4987   8.889   7.944   1.251  0.0309 -0.3408  1.2907
 1603SOL    HW2 4988   8.783   7.940   1.126  1.2814  0.1521  0.1961
 1604SOL     OW 4989   1.807   8.159   1.705  0.2246  0.4630 -0.5991
 1604SOL    HW1 4990   1.726   8.154   1.763  1.8485  0.3307  1.8020
 1604SOL    HW2 4991   1.780   8.146   1.610 -2.6434  1.2664  0.0002
 1605SOL     OW 4992   8.274   0.867   8.556  0.1112  0.0909  0.5719
 1605SOL    HW1 4993   8.240   0.786   8.508  3.0430 -1.1126  0.3184
 1605SOL    HW2 4994   8.276   0.849   8.654 -0.0808  0.2008  0.5962
 1606SOL     OW 4995   2.981   0.832   3.734  0.0021 -0.0572  0.5971
 1606SOL    HW1 4996   2.993   0.762   3.804 -0.0545  1.5307  2.2686
 1606SOL    HW2 4997   2.890   0.824   3.694  0.7967 -2.3776 -0.9834
 1607SOL     OW 4998   4.045   5.127   0.419  0.1637  0.9582  0.3767
 1607SOL    HW1 4999   4.091   5.169   0.497 -0.5515  0.4504  1.0883
 1607SOL    HW2 5000   3.992   5.049   0.450  0.1003  0.5717 -0.6735
 1608SOL     OW 5001   1.425   3.916   5.513  0.2695  0.0454 -0.3736
 1608SOL    HW1 5002   1.457   3.970   5.435  1.7390 -0.0270  0.1434
 1608SOL    HW2 5003   1.400   3.976   5.589  0.5597  0.0524 -0.2831
 1609SOL     OW 5004   0.269   2.141   8.052 -0.3135 -0.1160 -0.0790
 1609SOL    HW1 5005   0.256   2.043   8.063 -0.2663 -0.0064  1.1369
 1609SOL    HW2 5006   0.326   2.159   7.972 -0.1966 -1.0789 -0.2196
 1610SOL     OW 5007   6.329   5.377   5.300  0.0768 -0.1930 -0.0914
 1610SOL    HW1 5008   6.325   5.440   5.377  0.8063  0.8079 -0.8503
 1610SOL    HW2 5009   6.419   5.334   5.296  0.3095  0.3499 -0.8342
 1611SOL     OW 5010   4.330   5.938   3.058 -0.2479  0.0316 -0.1588
 1611SOL    HW1 5011   4.296   6.017   3.110 -0.4130 -0.1082 -0.0507
 1611SOL    HW2 5012   4.253   5.893   3.013 -0.5480 -1.5427  1.8021
 1612SOL     OW 5013   5.560   7.588   7.461  0.2683 -0.8254 -0.0714
 1612SOL    HW1 5014   5.655   7.621   7.463 -0.0701  0.2263 -0.7782
 1612SOL    HW2 5015   5.501   7.659   7.424 -0.7878 -1.5297  0.2324
 1613SOL     OW 5016   1.201   8.668   3.158 -0.3943  0.2303  0.0423
 1613SOL    HW1 5017   1.131   8.700   3.222  2.6343 -0.5860  4.2231
 1613SOL    HW2 5018   1.261   8.744   3.134 -0.0997  0.0521  0.2102
 1614SOL     OW 5019   7.019   6.657   4.706  0.4352  0.3343  0.3919
 1614SOL    HW1 5020   6.976   6.735   4.751  1.4271  0.7299  0.6714
 1614SOL    HW2 5021   7.117   6.675   4.694  0.2606  0.2023 -1.7815
 1615SOL     OW 5022   1.414   7.096   7.669 -0.4777 -0.6200 -0.4260
 1615SOL    HW1 5023   1.418   6.996   7.665 -1.3043 -0.6833 -0.0117
 1615SOL    HW2 5024   1.328   7.124   7.713 -0.1606  0.2702 -0.3503
 1616SOL     OW 5025   3.538   4.994   4.752  0.5447  0.6976  0.6710
 1616SOL    HW1 5026   3.533   5.079   4.700  0.9742  0.7946  0.7843
 1616SOL    HW2 5027   3.452   4.944   4.743  1.2597 -0.2396 -1.7309
 1617SOL     OW 5028   5.418   8.656   4.846  0.0008 -0.4745 -0.2372
 1617SOL    HW1 5029   5.507   8.609   4.845  0.1270 -0.2448  0.1749
 1617SOL    HW2 5030   5.376   8.647   4.756  0.0438 -1.3350 -0.1850
 1618SOL     OW 5031   7.063   8.096   2.486  0.9865 -0.0354  0.4331
 1618SOL    HW1 5032   7.056   8.042   2.570 -0.5104 -0.6725 -0.0752
 1618SOL    HW2 5033   7.105   8.184   2.507  2.1207 -0.8019  1.5474
 1619SOL     OW 5034   5.754   5.084   4.810  0.1175  0.3918 -0.2093
 1619SOL    HW1 5035   5.667   5.042   4.836  0.8791 -0.8060  0.5077
 1619SOL    HW2 5036   5.791   5.135   4.888  0.4655  0.1718 -0.2258
 1620SOL     OW 5037   2.829   4.714   0.073 -0.3182  0.5868 -0.4171
 1620SOL    HW1 5038   2.895   4.654   0.028  1.8266  0.0142  3.1167
 1620SOL    HW2 5039   2.750   4.661   0.103 -1.0790  0.7160 -2.0331
 1621SOL     OW 5040   0.190   7.350   6.486 -0.1389 -0.8199  0.6177
 1621SOL    HW1 5041   0.191   7.447   6.462 -1.4301 -1.0742 -0.6776
 1621SOL    HW2 5042   0.264   7.303   6.439 -0.9896 -0.8353 -0.7825
 1622SOL     OW 5043   1.710   1.379   8.489 -0.4434  0.4430 -0.1039
 1622SOL    HW1 5044   1.634   1.376   8.424 -2.3483 -2.1591  2.0213
 1622SOL    HW2 5045   1.724   1.288   8.528  1.4814  1.5934  2.1806
 1623SOL     OW 5046   2.771   0.633   4.411 -0.1233  0.7904 -0.3091
 1623SOL    HW1 5047   2.739   0.662   4.502 -1.0384 -0.8026 -0.0938
 1623SOL    HW2 5048   2.692   0.615   4.353  0.4628  1.4290 -1.3270
 1624SOL     OW 5049   8.804   8.433   4.026  0.3594  0.1377  0.1775
 1624SOL    HW1 5050   8.847   8.518   4.056  0.6276  0.6581 -1.5383
 1624SOL    HW2 5051   8.770   8.383   4.105  0.3571  1.7455  1.2485
 1625SOL     OW 5052   1.888   3.811   7.698  0.6506 -0.4221 -0.2039
 1625SOL    HW1 5053   1.851   3.777   7.784 -0.0004 -0.3391 -0.4474
 1625SOL    HW2 5054   1.922   3.734   7.643 -1.1425 -0.7548 -0.9061
 1626SOL     OW 5055   4.779   8.095   5.271  0.4658 -0.0888 -0.2569
 1626SOL    HW1 5056   4.830   8.167   5.319 -1.0877  0.8259  0.1197
 1626SOL    HW2 5057   4.841   8.024   5.241  1.8339  0.5644  0.9090
 1627SOL     OW 5058   0.206   3.908   1.247  0.4402 -0.1637 -0.1287
 1627SOL    HW1 5059   0.260   3.859   1.178  0.3023 -0.3584 -0.0994
 1627SOL    HW2 5060   0.268   3.955   1.310  0.6128 -1.1723  0.4810
 1628SOL     OW 5061   3.015   3.650   4.596  0.3857 -0.3206 -0.4686
 1628SOL    HW1 5062   2.995   3.552   4.594 -1.0111 -0.0554 -0.6926
 1628SOL    HW2 5063   2.933   3.701   4.570  0.9924  0.9266 -0.0106
 1629SOL     OW 5064   3.802   6.977   4.907  0.4184 -0.7115 -0.1568
 1629SOL    HW1 5065   3.776   6.897   4.961 -0.2746  1.0032  2.1985
 1629SOL    HW2 5066   3.745   7.055   4.933  1.6593  0.8032 -1.7259
 1630SOL     OW 5067   1.469   4.973   4.960 -0.1610  0.8617  0.1461
 1630SOL    HW1 5068   1.407   4.936   4.891 -0.1016  0.9831  0.0271
 1630SOL    HW2 5069   1.426   5.052   5.004  0.4432  1.7977 -0.8816
 1631SOL     OW 5070   0.060   4.727   4.196 -0.1306  0.3852 -0.0371
 1631SOL    HW1 5071   0.020   4.665   4.128  0.1189  1.6413 -1.3699
 1631SOL    HW2 5072   0.135   4.779   4.154 -1.8489  3.3414  0.2691
 1632SOL     OW 5073   2.269   3.697   4.664  0.4017 -0.0574  1.3266
 1632SOL    HW1 5074   2.219   3.666   4.583 -0.3070 -0.7062  2.0058
 1632SOL    HW2 5075   2.338   3.629   4.689 -0.1986 -0.4363  1.9794
 1633SOL     OW 5076   3.007   3.924   6.625  0.2940  0.6403 -0.0357
 1633SOL    HW1 5077   3.093   3.894   6.667 -0.5079 -2.1809 -0.1580
 1633SOL    HW2 5078   2.931   3.906   6.688 -0.5623 -0.4992 -1.3122
 1634SOL     OW 5079   3.502   8.847   0.489  0.1194  0.1420  0.4398
 1634SOL    HW1 5080   3.544   8.817   0.575  1.8562  2.8410  0.6404
 1634SOL    HW2 5081   3.430   8.783   0.464  0.9268 -1.8738  2.8096
 1635SOL     OW 5082   5.678   2.667   3.612 -0.0409  0.1720  0.3720
 1635SOL    HW1 5083   5.660   2.601   3.684 -1.3315 -0.5289 -0.5496
 1635SOL    HW2 5084   5.599   2.728   3.601  0.1055  0.2305 -0.4723
 1636SOL     OW 5085   4.609   2.622   1.032  0.0762  0.3128 -0.2631
 1636SOL    HW1 5086   4.666   2.586   0.958  0.0348  0.8830 -0.5800
 1636SOL    HW2 5087   4.513   2.599   1.014 -0.1123  1.6634 -1.1460
 1637SOL     OW 5088   6.256   7.706   5.508  0.0084 -0.0510 -0.3758
 1637SOL    HW1 5089   6.248   7.751   5.596 -1.1928  0.1788 -0.5821
 1637SOL    HW2 5090   6.350   7.675   5.494  0.2175 -0.0540  0.9556
 1638SOL     OW 5091   5.337   3.986   6.206  0.0892  0.1934  0.5998
 1638SOL    HW1 5092   5.422   3.985   6.153 -0.4796 -2.2483 -0.4270
 1638SOL    HW2 5093   5.354   3.951   6.298  0.0500 -1.4485  0.0163
 1639SOL     OW 5094   2.641   1.662   6.910  0.0607  0.3632 -0.4084
 1639SOL    HW1 5095   2.723   1.659   6.853 -0.4421 -2.5239 -1.1334
 1639SOL    HW2 5096   2.665   1.639   7.004  0.1424 -0.1509 -0.5528
 1640SOL     OW 5097   4.204   0.838   4.821  0.0619  0.4793  0.5965
 1640SOL    HW1 5098   4.215   0.910   4.890 -0.4333  3.0041 -1.8053
 1640SOL    HW2 5099   4.146   0.766   4.858 -2.6853  3.1345  1.9092
 1641SOL     OW 5100   6.455   8.289   1.928  0.8501  0.2787 -0.2236
 1641SOL    HW1 5101   6.386   8.222   1.902 -0.0632  0.6814  1.0717
 1641SOL    HW2 5102   6.482   8.275   2.023 -0.4153  2.5527  0.5713
 1642SOL     OW 5103   5.591   4.343   7.682 -0.0321 -0.0001 -0.0884
 1642SOL    HW1 5104   5.541   4.261   7.709  1.1289 -0.9825 -0.8166
 1642SOL    HW2 5105   5.610   4.340   7.584  1.7515  0.1337  0.2155
 1643SOL     OW 5106   5.118   7.895   0.541  0.3005 -0.0459  0.3391
 1643SOL    HW1 5107   5.048   7.965   0.556 -0.1648 -0.1023 -1.3728
 1643SOL    HW2 5108   5.167   7.915   0.456  2.7753  0.2929  1.7473
 1644SOL     OW 5109   8.116   4.743   5.402  0.0374  0.2983 -0.4056
 1644SOL    HW1 5110   8.113   4.815   5.332  1.7660 -0.2872 -1.1229
 1644SOL    HW2 5111   8.138   4.656   5.359 -0.5349 -0.3917  0.6680
 1645SOL     OW 5112   8.199   3.344   6.406 -0.1437  0.1384 -0.5873
 1645SOL    HW1 5113   8.216   3.433   6.363 -1.3546  0.1363 -1.1094
 1645SOL    HW2 5114   8.261   3.276   6.367  1.2415  0.8459  0.2700
 1646SOL     OW 5115   4.902   4.696   7.920 -0.7142 -0.0661 -0.1659
 1646SOL    HW1 5116   4.862   4.722   8.008 -1.6594  0.6234 -0.7811
 1646SOL    HW2 5117   4.830   4.665   7.858  0.0747 -1.6374 -0.3559
 1647SOL     OW 5118   1.689   5.624   1.175  0.3634 -0.1031  0.3095
 1647SOL    HW1 5119   1.665   5.590   1.084 -1.2905 -0.4713  0.8461
 1647SOL    HW2 5120   1.756   5.698   1.166 -0.8333  0.8646 -1.3412
 1648SOL     OW 5121   3.569   4.285   4.586  0.4895  0.0369 -0.9038
 1648SOL    HW1 5122   3.543   4.203   4.535  0.8375 -0.2898 -0.5630
 1648SOL    HW2 5123   3.646   4.264   4.646  0.3658  0.5308 -0.5655
 1649SOL     OW 5124   0.348   1.107   8.580 -0.0850 -0.5387  0.7327
 1649SOL    HW1 5125   0.290   1.038   8.624  0.6506 -0.1949  2.3043
 1649SOL    HW2 5126   0.311   1.198   8.598 -1.3655 -0.4743 -1.8039
 1650SOL     OW 5127   5.640   4.361   0.542 -0.0685 -0.1394  0.1318
 1650SOL    HW1 5128   5.691   4.363   0.456 -0.6882  0.3645 -0.2333
 1650SOL    HW2 5129   5.689   4.415   0.611  0.8269 -1.1782  0.3383
 1651SOL     OW 5130   2.272   0.052   4.673  0.6305  0.1673  0.3354
 1651SOL    HW1 5131   2.205   0.108   4.720  1.2103  0.5325  0.7357
 1651SOL    HW2 5132   2.358   0.102   4.666  0.4067  0.3738 -1.6365
 1652SOL     OW 5133   3.851   4.850   8.842  0.2774 -0.2884  0.2759
 1652SOL    HW1 5134   3.899   4.912   8.780 -0.5798 -0.5019 -0.6363
 1652SOL    HW2 5135   3.879   4.756   8.823 -0.7810 -0.4536 -0.5531
 1653SOL     OW 5136   6.398   4.313   1.538 -0.5781 -0.0994  0.1550
 1653SOL    HW1 5137   6.355   4.233   1.579 -0.8156  0.1519  0.3969
 1653SOL    HW2 5138   6.495   4.295   1.522 -1.2025 -1.5706 -2.6065
 1654SOL     OW 5139   0.333   0.625   0.150 -0.4896 -0.0661 -0.3186
 1654SOL    HW1 5140   0.296   0.708   0.108 -0.1630 -0.1367 -0.7593
 1654SOL    HW2 5141   0.282   0.604   0.233  0.0895  1.1749  0.3847
 1655SOL     OW 5142   1.370   4.434   3.809 -0.4361 -0.4618 -0.5475
 1655SOL    HW1 5143   1.422   4.517   3.785 -2.8704  1.1483 -0.6507
 1655SOL    HW2 5144   1.428   4.373   3.863  2.2973  0.0572 -2.6102
 1656SOL     OW 5145   0.015   3.367   6.622 -0.1482 -0.2265 -0.0109
 1656SOL    HW1 5146   0.011   3.462   6.591 -0.5639 -0.2195  0.0602
 1656SOL    HW2 5147   0.091   3.321   6.577  1.6353  0.8014  1.8027
 1657SOL     OW 5148   3.829   4.335   3.549 -0.2025 -0.6422  0.3513
 1657SOL    HW1 5149   3.859   4.242   3.526 -1.0603 -0.6169 -0.9444
 1657SOL    HW2 5150   3.787   4.334   3.640  0.3496 -1.3963  0.6081
 1658SOL     OW 5151   4.579   7.951   4.569 -0.1650  0.5014  0.4430
 1658SOL    HW1 5152   4.552   7.891   4.645 -0.2389  0.1665  0.1533
 1658SOL    HW2 5153   4.547   8.044   4.587  0.8959  0.7053  1.4269
 1659SOL     OW 5154   3.281   6.261   0.428  0.0571  0.4164 -0.1258
 1659SOL    HW1 5155   3.271   6.325   0.352 -0.0697  0.5188 -0.0231
 1659SOL    HW2 5156   3.321   6.309   0.506  0.2351  0.2997 -0.1442
 1660SOL     OW 5157   1.423   7.309   5.543  0.5527 -0.6415 -0.1117
 1660SOL    HW1 5158   1.459   7.267   5.626  0.7199 -1.1182 -0.4205
 1660SOL    HW2 5159   1.328   7.335   5.557 -0.1112 -2.7184 -0.4546
 1661SOL     OW 5160   7.659   8.505   1.694  0.7550  0.0031 -0.5666
 1661SOL    HW1 5161   7.649   8.604   1.702 -1.3832 -0.1633 -0.4584
 1661SOL    HW2 5162   7.681   8.482   1.599 -0.7900  0.5229 -1.0968
 1662SOL     OW 5163   3.351   2.145   3.039  0.0854  0.4837 -0.1544
 1662SOL    HW1 5164   3.381   2.050   3.046 -0.4266  0.2490 -0.9833
 1662SOL    HW2 5165   3.332   2.167   2.943 -2.4183  0.5931  0.2920
 1663SOL     OW 5166   1.247   5.318   6.464  0.3822 -0.2165  0.4003
 1663SOL    HW1 5167   1.162   5.369   6.476  1.5485  1.6887  0.8996
 1663SOL    HW2 5168   1.311   5.371   6.408  1.2700 -1.6173  0.0163
 1664SOL     OW 5169   7.376   8.446   1.500  0.3614 -0.1135 -0.1399
 1664SOL    HW1 5170   7.335   8.403   1.420  2.0328 -1.9173 -0.0845
 1664SOL    HW2 5171   7.475   8.441   1.493  0.5514  0.8363  1.4688
 1665SOL     OW 5172   5.645   4.165   3.099 -0.2291  0.3573  0.3303
 1665SOL    HW1 5173   5.622   4.199   3.191  2.1737  0.3142  1.0044
 1665SOL    HW2 5174   5.739   4.191   3.076  0.7406 -3.2686 -0.3409
 1666SOL     OW 5175   2.379   7.828   4.635 -0.0534 -0.0809  0.2017
 1666SOL    HW1 5176   2.351   7.865   4.724 -1.0891  0.9768 -0.5266
 1666SOL    HW2 5177   2.359   7.730   4.632 -2.6416  0.3672  0.1900
 1667SOL     OW 5178   3.410   3.196   5.446  0.4288  0.3948 -0.4110
 1667SOL    HW1 5179   3.484   3.260   5.428  0.4145  0.0822 -1.6183
 1667SOL    HW2 5180   3.324   3.232   5.410 -0.0411  0.7757  1.0131
 1668SOL     OW 5181   8.626   4.645   0.011  0.1593  0.1424  0.3562
 1668SOL    HW1 5182   8.634   4.742  -0.010 -0.3766  0.0332 -0.3960
 1668SOL    HW2 5183   8.533   4.614  -0.008  0.3423 -0.5301  0.5127
 1669SOL     OW 5184   7.597   8.047   6.422 -0.2323  0.7422 -0.4653
 1669SOL    HW1 5185   7.509   8.029   6.467 -0.1298  0.8303 -0.2259
 1669SOL    HW2 5186   7.644   7.960   6.406 -1.0006  0.5566 -1.9302
 1670SOL     OW 5187   0.551   6.795   8.609 -0.4727  0.0584 -0.1664
 1670SOL    HW1 5188   0.603   6.737   8.547 -0.8124  0.2975 -0.6890
 1670SOL    HW2 5189   0.600   6.881   8.623  0.4153 -0.6575  1.2432
 1671SOL     OW 5190   5.117   1.661   3.727  0.4983  0.4598 -0.2874
 1671SOL    HW1 5191   5.058   1.615   3.660 -0.0677  2.0161 -0.9031
 1671SOL    HW2 5192   5.176   1.593   3.771 -0.8573 -0.9614 -0.5603
 1672SOL     OW 5193   1.362   1.883   8.555 -0.0482  0.5636  0.3946
 1672SOL    HW1 5194   1.302   1.908   8.479  0.0253  0.6676  0.3699
 1672SOL    HW2 5195   1.384   1.965   8.607 -0.5005  0.4190  0.8222
 1673SOL     OW 5196   4.522   3.497   2.757  0.5136  0.2032 -0.2283
 1673SOL    HW1 5197   4.558   3.421   2.812 -0.2456 -1.1725 -1.5524
 1673SOL    HW2 5198   4.562   3.492   2.665  0.1806  1.2234 -0.4347
 1674SOL     OW 5199   8.706   2.894   2.080 -0.3404  0.1388 -0.1608
 1674SOL    HW1 5200   8.616   2.929   2.109 -0.1834  2.9390 -2.5977
 1674SOL    HW2 5201   8.696   2.800   2.048 -2.4290  0.3784 -0.3807
 1675SOL     OW 5202   7.917   0.968   4.529 -0.1142  0.2952 -0.1505
 1675SOL    HW1 5203   7.955   1.010   4.446 -0.7412  0.2107 -0.4804
 1675SOL    HW2 5204   7.834   1.016   4.555  1.2088  1.7547  1.6954
 1676SOL     OW 5205   8.297   1.164   2.941 -0.1040  0.1706 -0.7500
 1676SOL    HW1 5206   8.338   1.135   3.028 -0.0942 -1.1861 -1.1819
 1676SOL    HW2 5207   8.361   1.224   2.893  0.6183 -0.4407 -0.5808
 1677SOL     OW 5208   5.431   3.209   8.651 -0.0900  0.0436 -0.2367
 1677SOL    HW1 5209   5.359   3.151   8.689 -0.3470  0.2901 -0.3391
 1677SOL    HW2 5210   5.439   3.292   8.705 -1.8389  1.3351 -1.8412
 1678SOL     OW 5211   1.784   1.009   5.217  0.3724 -0.0212  0.4779
 1678SOL    HW1 5212   1.774   1.107   5.233 -0.3462  0.3122 -1.7040
 1678SOL    HW2 5213   1.873   0.992   5.174 -0.5069  0.0450 -1.4513
 1679SOL     OW 5214   6.308   0.258   2.568  0.0648 -0.3472 -0.1271
 1679SOL    HW1 5215   6.349   0.276   2.479  0.0791 -0.2595 -0.1029
 1679SOL    HW2 5216   6.209   0.270   2.563 -0.0038 -0.9754 -0.2897
 1680SOL     OW 5217   8.577   7.826   2.078  0.6481  0.3529 -0.4291
 1680SOL    HW1 5218   8.633   7.866   2.005  0.2591  0.7840 -0.4946
 1680SOL    HW2 5219   8.485   7.806   2.042  0.4968  0.4362 -0.0960
 1681SOL     OW 5220   0.254   2.134   1.636  0.0657  0.1798  0.4608
 1681SOL    HW1 5221   0.297   2.221   1.614 -0.3645 -0.1688 -2.0831
 1681SOL    HW2 5222   0.188   2.146   1.711  0.4207  1.8943  0.5217
 1682SOL     OW 5223   2.431   7.663   6.716  0.1971  0.8447 -0.0982
 1682SOL    HW1 5224   2.427   7.586   6.652 -2.9400  1.0447 -0.2797
 1682SOL    HW2 5225   2.414   7.748   6.667 -1.8664  1.0427  0.8597
 1683SOL     OW 5226   5.994   0.402   7.900 -0.5730  0.2806 -0.3944
 1683SOL    HW1 5227   5.948   0.386   7.987  2.8314  0.4517  1.6229
 1683SOL    HW2 5228   6.038   0.492   7.902  2.4108 -1.0552 -0.7945
 1684SOL     OW 5229   2.254   0.185   4.073 -0.3818  0.8915 -0.5487
 1684SOL    HW1 5230   2.168   0.135   4.083 -0.5858  1.1348 -1.0802
 1684SOL    HW2 5231   2.324   0.123   4.039 -0.4832  0.8199 -0.6276
 1685SOL     OW 5232   3.509   1.632   7.387  0.4409 -0.1351  0.4783
 1685SOL    HW1 5233   3.491   1.587   7.300 -0.4859 -0.5979  0.8958
 1685SOL    HW2 5234   3.427   1.679   7.419  1.2139  1.3557  0.3596
 1686SOL     OW 5235   1.425   1.286   1.398 -0.1519  0.2951 -0.2131
 1686SOL    HW1 5236   1.386   1.209   1.348  1.1996 -1.5527  1.4156
 1686SOL    HW2 5237   1.502   1.324   1.346  0.4547 -0.7965 -0.1533
 1687SOL     OW 5238   7.614   7.791   2.766 -0.5407  0.2848 -0.3055
 1687SOL    HW1 5239   7.614   7.799   2.666  0.8486  2.4290 -0.2088
 1687SOL    HW2 5240   7.555   7.861   2.805  1.1616  1.4140  0.3929
 1688SOL     OW 5241   4.908   4.207   1.843  0.0283  0.0917 -0.8828
 1688SOL    HW1 5242   4.959   4.200   1.757 -1.3476 -1.6106 -1.6179
 1688SOL    HW2 5243   4.810   4.205   1.824 -0.3063 -0.3655  0.7435
 1689SOL     OW 5244   0.750   1.870   5.821  0.4937 -0.3497  0.8224
 1689SOL    HW1 5245   0.680   1.938   5.841  0.4028  0.6531 -2.2920
 1689SOL    HW2 5246   0.707   1.785   5.791  0.5231  0.2727 -1.1094
 1690SOL     OW 5247   8.262   3.253   0.850  0.5171 -0.1643 -0.4776
 1690SOL    HW1 5248   8.192   3.324   0.853  1.4896  0.7924  0.5139
 1690SOL    HW2 5249   8.243   3.185   0.921  0.8980  0.4118  0.1887
 1691SOL     OW 5250   1.157   7.804   8.350 -0.0074  0.2182 -0.4394
 1691SOL    HW1 5251   1.170   7.761   8.440  1.4953 -0.0055 -0.7380
 1691SOL    HW2 5252   1.225   7.876   8.338 -0.9233  1.0141 -0.9624
 1692SOL     OW 5253   1.337   0.490   4.158 -0.0695 -0.6174 -0.7591
 1692SOL    HW1 5254   1.367   0.526   4.070 -1.2422  1.2587 -0.4407
 1692SOL    HW2 5255   1.323   0.391   4.151  0.3952 -0.5849 -2.4966
 1693SOL     OW 5256   2.661   2.241   2.030  0.0951 -0.4843  0.1368
 1693SOL    HW1 5257   2.721   2.245   1.950 -1.3935  0.8221 -0.9760
 1693SOL    HW2 5258   2.709   2.280   2.110  0.5750  1.0389 -0.8444
 1694SOL     OW 5259   3.908   7.113   3.062 -0.1843  0.6788  0.2388
 1694SOL    HW1 5260   3.973   7.169   3.112  0.2047  0.7013 -0.2797
 1694SOL    HW2 5261   3.831   7.090   3.121 -0.3431  1.7400  0.4657
 1695SOL     OW 5262   2.313   6.921   1.165  0.2167 -0.2452 -0.7284
 1695SOL    HW1 5263   2.405   6.895   1.196  0.3219  0.2329 -0.6402
 1695SOL    HW2 5264   2.248   6.848   1.190  0.2375  0.2477  0.9226
 1696SOL     OW 5265   8.498   6.463   5.233  0.1076 -0.6587 -0.0688
 1696SOL    HW1 5266   8.472   6.557   5.211  1.0800 -0.4764 -0.4813
 1696SOL    HW2 5267   8.597   6.458   5.250  0.0108 -1.5414  0.3177
 1697SOL     OW 5268   4.451   8.438   3.438 -0.1410  0.6314 -0.5402
 1697SOL    HW1 5269   4.485   8.414   3.347 -1.1529 -0.9666 -0.5488
 1697SOL    HW2 5270   4.465   8.536   3.454  1.0708  0.7324 -1.9523
 1698SOL     OW 5271   3.453   7.613   8.539 -0.1530  0.8750  0.0516
 1698SOL    HW1 5272   3.532   7.637   8.595 -0.4379 -0.9384  1.3209
 1698SOL    HW2 5273   3.409   7.532   8.577 -3.1938  2.3420 -0.0455
 1699SOL     OW 5274   6.859   4.521   1.500  0.3050 -0.6209  0.0744
 1699SOL    HW1 5275   6.913   4.501   1.581  0.7435 -0.9855 -0.2963
 1699SOL    HW2 5276   6.783   4.457   1.494  0.2281 -0.5431  0.2417
 1700SOL     OW 5277   1.563   6.131   2.422  0.3235 -0.5629 -0.0298
 1700SOL    HW1 5278   1.547   6.083   2.508  0.7533  0.3538  0.5828
 1700SOL    HW2 5279   1.477   6.137   2.371 -0.3251  0.2833  1.0999
 1701SOL     OW 5280   7.475   4.245   1.683 -0.8615 -0.1350  0.3119
 1701SOL    HW1 5281   7.412   4.299   1.628  0.1591  0.1773 -0.5843
 1701SOL    HW2 5282   7.461   4.148   1.663 -0.7803 -0.0448 -0.1929
 1702SOL     OW 5283   4.006   4.160   7.894  0.1200 -0.5267  0.2811
 1702SOL    HW1 5284   4.032   4.256   7.880 -0.8701 -0.1836  0.6798
 1702SOL    HW2 5285   4.016   4.136   7.991 -0.4572 -0.5540  0.3413
 1703SOL     OW 5286   5.264   5.343   4.443 -0.0768  0.2113 -0.4522
 1703SOL    HW1 5287   5.187   5.291   4.479 -0.0413  0.5538  0.1316
 1703SOL    HW2 5288   5.297   5.300   4.359 -0.3283 -0.4511 -0.2185
 1704SOL     OW 5289   5.675   4.459   5.338  0.7010  0.1450  0.1740
 1704SOL    HW1 5290   5.612   4.418   5.272  2.3270 -0.6990 -0.9444
 1704SOL    HW2 5291   5.699   4.391   5.408 -0.1250  0.6714  0.9771
 1705SOL     OW 5292   7.381   3.400   1.941  0.1352 -0.0814  0.4418
 1705SOL    HW1 5293   7.410   3.362   1.853  1.3954 -0.7749  1.1254
 1705SOL    HW2 5294   7.309   3.468   1.926  0.5578  0.0588 -1.1467
 1706SOL     OW 5295   7.220   1.203   0.051 -0.0190 -0.0226  0.1345
 1706SOL    HW1 5296   7.268   1.127   0.095 -1.9065 -0.2173  2.0393
 1706SOL    HW2 5297   7.201   1.179  -0.044 -2.0873 -2.7951  1.1054
 1707SOL     OW 5298   2.520   1.097   5.005 -0.2347 -0.3594 -0.1408
 1707SOL    HW1 5299   2.593   1.032   5.028 -1.7282 -1.9124  0.4131
 1707SOL    HW2 5300   2.462   1.112   5.085 -2.2890 -1.5282 -1.3364
 1708SOL     OW 5301   3.431   6.765   3.432 -0.0503  0.7848 -0.7044
 1708SOL    HW1 5302   3.519   6.724   3.406 -0.9864 -1.4574 -0.5676
 1708SOL    HW2 5303   3.447   6.852   3.479  2.1959 -0.2101  0.5407
 1709SOL     OW 5304   5.660   8.134   3.952 -0.9561 -0.5432 -0.1842
 1709SOL    HW1 5305   5.672   8.222   3.998  1.0603 -1.4104  1.0932
 1709SOL    HW2 5306   5.693   8.141   3.858 -2.8943  0.6055 -0.8440
 1710SOL     OW 5307   0.195   3.904   2.213 -0.1997 -0.1827 -0.1936
 1710SOL    HW1 5308   0.171   3.807   2.212 -0.3773 -0.1446 -2.0882
 1710SOL    HW2 5309   0.274   3.919   2.154  0.1823  0.7475  0.5441
 1711SOL     OW 5310   3.705   3.591   5.242  0.1055 -0.2470 -0.0511
 1711SOL    HW1 5311   3.741   3.679   5.272 -0.5773 -0.0409  0.1785
 1711SOL    HW2 5312   3.697   3.590   5.142 -1.0233  0.4150  0.0153
 1712SOL     OW 5313   4.325   2.571   2.655 -0.2549 -0.6023 -0.5369
 1712SOL    HW1 5314   4.311   2.650   2.715 -0.3902 -0.8772 -0.2027
 1712SOL    HW2 5315   4.236   2.535   2.626 -0.2014 -0.8606 -0.3829
 1713SOL     OW 5316   3.221   1.072   0.651  0.0181  0.4671 -0.3762
 1713SOL    HW1 5317   3.164   1.128   0.711  0.4636  1.2983 -0.7121
 1713SOL    HW2 5318   3.164   1.010   0.598 -0.8263  2.7137 -2.2421
 1714SOL     OW 5319   7.721   3.835   0.943  0.2633  0.0599 -0.2633
 1714SOL    HW1 5320   7.723   3.822   1.042  1.4853  3.1110  0.2327
 1714SOL    HW2 5321   7.640   3.890   0.919 -0.3440 -1.1459 -1.0838
 1715SOL     OW 5322   6.220   6.253   1.105 -0.4505 -0.8188  0.3869
 1715SOL    HW1 5323   6.150   6.208   1.050 -1.9074 -1.0177  2.2711
 1715SOL    HW2 5324   6.308   6.250   1.058 -1.1547 -2.9250 -0.9073
 1716SOL     OW 5325   7.637   0.992   2.029  0.1220  0.0288  0.4975
 1716SOL    HW1 5326   7.551   0.953   1.994 -0.5202  1.3835  0.5014
 1716SOL    HW2 5327   7.675   1.056   1.962  1.1484 -0.5610  0.4987
 1717SOL     OW 5328   2.100   4.478   2.668 -0.4782 -0.5564 -0.1129
 1717SOL    HW1 5329   2.034   4.537   2.714  2.2836  1.7584  1.1812
 1717SOL    HW2 5330   2.102   4.389   2.714 -0.0321  0.6408  2.3800
 1718SOL     OW 5331   6.371   3.137   2.588 -0.7153  0.2735 -0.4022
 1718SOL    HW1 5332   6.382   3.040   2.609 -0.4643  0.2061 -0.8158
 1718SOL    HW2 5333   6.289   3.149   2.531 -1.6116  0.5031  0.8996
 1719SOL     OW 5334   6.112   1.968   3.743 -0.7316 -0.7487  0.1894
 1719SOL    HW1 5335   6.194   2.022   3.726 -0.8172 -0.7868 -0.3702
 1719SOL    HW2 5336   6.109   1.940   3.839  0.5614 -1.8050 -0.0516
 1720SOL     OW 5337   5.838   4.822   5.523 -0.4964 -0.1047  0.0640
 1720SOL    HW1 5338   5.838   4.887   5.599 -1.2132  0.8246 -0.6969
 1720SOL    HW2 5339   5.873   4.867   5.441 -1.8864 -0.3704 -0.7105
 1721SOL     OW 5340   6.550   0.893   6.398 -0.0672  0.0049  0.3753
 1721SOL    HW1 5341   6.587   0.811   6.353 -1.4467 -1.3517  1.6050
 1721SOL    HW2 5342   6.460   0.914   6.360 -0.5226 -0.1695  1.3313
 1722SOL     OW 5343   1.338   8.749   3.895 -0.5041  0.5281  0.1860
 1722SOL    HW1 5344   1.318   8.771   3.990  0.6324  0.7146  0.3966
 1722SOL    HW2 5345   1.274   8.680   3.863  1.4297 -2.5316  2.3268
 1723SOL     OW 5346   4.371   5.335   5.302 -0.3550  0.2163 -0.2827
 1723SOL    HW1 5347   4.366   5.246   5.256  0.3727 -0.0152  0.0751
 1723SOL    HW2 5348   4.296   5.393   5.269 -0.7443 -0.4670 -0.6397
 1724SOL     OW 5349   5.317   6.520   2.739 -0.2105 -0.1665 -0.2629
 1724SOL    HW1 5350   5.366   6.489   2.658  1.9331  0.3540  0.7474
 1724SOL    HW2 5351   5.228   6.557   2.712 -0.7415 -2.4797 -2.0191
 1725SOL     OW 5352   0.080   5.856   1.573 -0.6227 -0.0838  0.6626
 1725SOL    HW1 5353   0.063   5.896   1.663 -2.3210  1.2719 -0.2031
 1725SOL    HW2 5354   0.096   5.930   1.507  1.0159 -1.0709 -0.1100
 1726SOL     OW 5355   3.825   1.909   7.956  0.1701  0.0838 -0.2240
 1726SOL    HW1 5356   3.840   1.841   8.028 -0.4462 -0.8744 -0.9868
 1726SOL    HW2 5357   3.739   1.957   7.973  0.5206  0.5804  0.2176
 1727SOL     OW 5358   3.796   0.720   7.561  0.3292  0.3032  0.1301
 1727SOL    HW1 5359   3.882   0.772   7.554  1.0021 -0.6657  0.9430
 1727SOL    HW2 5360   3.742   0.756   7.637 -1.1273  2.4771 -1.8154
 1728SOL     OW 5361   2.915   2.086   0.257  0.0225 -0.0446 -1.0000
 1728SOL    HW1 5362   2.871   2.144   0.325  0.9889 -0.2997 -0.1397
 1728SOL    HW2 5363   3.014   2.083   0.273  0.3242  0.1789 -2.6405
 1729SOL     OW 5364   1.898   5.649   0.792 -0.4008  0.0716 -0.6656
 1729SOL    HW1 5365   1.959   5.696   0.857 -0.9026 -0.8374  0.5173
 1729SOL    HW2 5366   1.821   5.708   0.769  0.4347  0.8799 -1.4398
 1730SOL     OW 5367   4.438   4.386   8.544  0.0164  0.4077 -0.5220
 1730SOL    HW1 5368   4.388   4.349   8.621  2.9557 -2.4706  0.1936
 1730SOL    HW2 5369   4.384   4.373   8.460 -0.9643 -1.4136  0.3347
 1731SOL     OW 5370   6.021   4.382   2.301  0.3414 -0.0836 -0.3460
 1731SOL    HW1 5371   5.980   4.448   2.238 -0.8732  0.7828  1.2813
 1731SOL    HW2 5372   6.118   4.402   2.312  0.0087  1.4218  0.0661
 1732SOL     OW 5373   3.684   1.275   1.134 -0.5353 -0.3170 -0.2875
 1732SOL    HW1 5374   3.615   1.217   1.178 -1.8107  0.4789 -1.1616
 1732SOL    HW2 5375   3.733   1.223   1.064 -1.3201 -0.5037 -0.7121
 1733SOL     OW 5376   7.298   2.973   6.106 -0.2821 -0.2528 -0.0630
 1733SOL    HW1 5377   7.290   3.034   6.027  0.7057  0.0398  0.0586
 1733SOL    HW2 5378   7.321   2.881   6.074  0.9582  0.0480 -0.0783
 1734SOL     OW 5379   5.924   8.115   1.293 -0.0102 -0.3767 -0.1475
 1734SOL    HW1 5380   5.906   8.017   1.284 -1.3154 -0.2560  0.8812
 1734SOL    HW2 5381   5.950   8.152   1.204 -0.4565 -1.4708 -0.7523
 1735SOL     OW 5382   7.011   6.813   3.093 -0.2183 -0.0015  0.4229
 1735SOL    HW1 5383   6.932   6.840   3.038  0.2407 -0.2506 -0.3708
 1735SOL    HW2 5384   7.037   6.719   3.070 -1.1129 -0.7946  2.3488
 1736SOL     OW 5385   0.986   2.818   2.439 -0.3331 -0.0564 -0.5879
 1736SOL    HW1 5386   0.912   2.883   2.455 -0.9198 -1.0442  0.9399
 1736SOL    HW2 5387   1.073   2.860   2.465 -0.6979  0.1654  0.3269
 1737SOL     OW 5388   6.217   6.906   2.677  0.2759  0.7547 -0.8270
 1737SOL    HW1 5389   6.264   6.993   2.665  0.6315  0.9017  1.2833
 1737SOL    HW2 5390   6.284   6.833   2.689 -0.0177  0.5296 -0.5255
 1738SOL     OW 5391   3.722   4.736   3.978  0.3827  0.2195  0.1347
 1738SOL    HW1 5392   3.651   4.761   4.043  1.6485  2.8910  0.6109
 1738SOL    HW2 5393   3.694   4.763   3.886  0.3958  0.3725  0.1767
 1739SOL     OW 5394   5.511   5.327   6.072  0.3309 -0.7323 -0.1712
 1739SOL    HW1 5395   5.592   5.379   6.044  0.0540 -1.0681 -1.6564
 1739SOL    HW2 5396   5.430   5.385   6.065  0.1499 -1.0670 -0.9030
 1740SOL     OW 5397   0.165   3.177   3.276  0.8489 -0.0554 -0.1996
 1740SOL    HW1 5398   0.124   3.094   3.238 -1.9791  1.4779 -0.8021
 1740SOL    HW2 5399   0.253   3.194   3.232  1.1740 -2.2910 -0.5716
 1741SOL     OW 5400   5.234   6.398   1.943  0.1315 -0.0043 -0.4496
 1741SOL    HW1 5401   5.165   6.362   1.880  0.5812 -0.0716 -0.9112
 1741SOL    HW2 5402   5.214   6.494   1.963  0.0283  0.0393 -0.7566
 1742SOL     OW 5403   1.975   6.988   6.648  0.1791  0.6215 -0.3409
 1742SOL    HW1 5404   1.887   7.024   6.617  0.3528  0.1376 -1.4539
 1742SOL    HW2 5405   1.963   6.893   6.677 -0.0393  1.1562  1.4269
 1743SOL     OW 5406   0.022   2.942   6.270  0.1027  0.1062 -0.3115
 1743SOL    HW1 5407   0.074   2.962   6.353 -0.1858 -1.0652  0.1720
 1743SOL    HW2 5408  -0.050   2.875   6.291 -2.6401  2.7593 -0.6016
 1744SOL     OW 5409   1.872   6.217   3.795  0.0426 -0.4317 -0.1102
 1744SOL    HW1 5410   1.874   6.117   3.801 -1.5331 -0.5102 -0.4608
 1744SOL    HW2 5411   1.847   6.244   3.702  2.6316  0.3669 -0.6497
 1745SOL     OW 5412   3.108   2.554   3.693 -0.6414 -0.1898  0.2874
 1745SOL    HW1 5413   3.095   2.643   3.737 -2.1182 -0.4207  0.3734
 1745SOL    HW2 5414   3.024   2.499   3.703 -0.2409 -1.0720 -0.9395
 1746SOL     OW 5415   8.175   7.394   5.654 -0.4682 -0.0370  0.0469
 1746SOL    HW1 5416   8.207   7.380   5.748  0.8680  1.7380 -0.1008
 1746SOL    HW2 5417   8.100   7.461   5.654 -0.0895  0.3910 -0.1972
 1747SOL     OW 5418   7.834   6.241   3.812  0.0082  0.3815 -0.1660
 1747SOL    HW1 5419   7.920   6.201   3.843  0.1582 -0.0080 -1.0618
 1747SOL    HW2 5420   7.852   6.305   3.738 -0.2691  1.8658  0.9989
 1748SOL     OW 5421   0.622   0.941   4.425  0.6162 -0.5331 -0.0026
 1748SOL    HW1 5422   0.625   0.851   4.382  0.6942 -0.1979 -0.7253
 1748SOL    HW2 5423   0.709   0.989   4.408  0.8370 -0.5749  0.9528
 1749SOL     OW 5424   0.029   6.109   7.744 -0.2250 -0.1645  0.3154
 1749SOL    HW1 5425   0.045   6.054   7.826  0.1170  0.6056  0.7696
 1749SOL    HW2 5426   0.116   6.143   7.709 -0.4047 -0.1871 -0.1541
 1750SOL     OW 5427   0.594   5.461   1.471 -0.6620  0.3178 -0.0166
 1750SOL    HW1 5428   0.596   5.361   1.472  0.8993  0.3147  0.7411
 1750SOL    HW2 5429   0.659   5.494   1.402 -2.0238  0.8322 -1.0870
 1751SOL     OW 5430   1.927   0.869   8.653 -0.0609 -0.1775  0.1571
 1751SOL    HW1 5431   1.857   0.830   8.713  1.1571 -0.9066  1.1452
 1751SOL    HW2 5432   2.010   0.815   8.660  0.1373 -0.2550 -2.1886
 1752SOL     OW 5433   3.099   7.137   1.746  0.3687  0.2216  0.1612
 1752SOL    HW1 5434   3.176   7.192   1.712  0.1490  0.2537 -0.2893
 1752SOL    HW2 5435   3.029   7.130   1.674  0.6521 -1.1332  0.0087
 1753SOL     OW 5436   3.989   2.809   5.852  0.1105 -0.7123 -0.5163
 1753SOL    HW1 5437   3.985   2.877   5.778  0.2940  0.1313  0.2301
 1753SOL    HW2 5438   4.074   2.820   5.903 -0.7997 -0.0702  0.9336
 1754SOL     OW 5439   8.738   5.086   3.220  0.3290  0.3988 -0.3725
 1754SOL    HW1 5440   8.762   5.176   3.256  0.4782  0.3277 -0.2961
 1754SOL    HW2 5441   8.639   5.080   3.208  0.4410  1.2010 -2.0188
 1755SOL     OW 5442   5.812   1.752   4.953 -0.2206  0.8159 -0.2148
 1755SOL    HW1 5443   5.890   1.781   5.009  0.8807  0.0685 -1.3254
 1755SOL    HW2 5444   5.742   1.713   5.012  1.2153 -0.6348  0.6123
 1756SOL     OW 5445   7.460   1.586   4.732 -0.7867 -0.5269  0.6911
 1756SOL    HW1 5446   7.372   1.551   4.700 -2.1115  1.1922  2.2434
 1756SOL    HW2 5447   7.480   1.550   4.823 -2.1995  2.4475  2.3520
 1757SOL     OW 5448   2.448   7.002   4.373  0.3655 -0.0045 -0.0215
 1757SOL    HW1 5449   2.436   7.100   4.393  0.7966 -0.0684  0.5944
 1757SOL    HW2 5450   2.500   6.960   4.447  0.3598 -0.6618 -0.3885
 1758SOL     OW 5451   4.791   7.562   7.037 -0.4494 -0.0282 -0.0312
 1758SOL    HW1 5452   4.715   7.526   6.982 -0.9966  0.5703  0.3244
 1758SOL    HW2 5453   4.866   7.590   6.976 -0.5990 -0.4043 -0.3961
 1759SOL     OW 5454   7.108   8.743   0.739  0.3953  0.7070 -0.7767
 1759SOL    HW1 5455   7.123   8.688   0.821  0.0980  1.5512 -0.1444
 1759SOL    HW2 5456   7.151   8.697   0.661  0.7247 -0.0869 -0.1531
 1760SOL     OW 5457   4.953   7.660   5.813  0.3970  0.1866 -0.1257
 1760SOL    HW1 5458   4.982   7.604   5.735  0.9463  0.5724 -0.2029
 1760SOL    HW2 5459   5.029   7.719   5.841  0.1198  0.2309  0.5417
 1761SOL     OW 5460   6.440   1.106   3.856  0.1247  0.2202  0.3964
 1761SOL    HW1 5461   6.424   1.109   3.955  0.4054  1.0567  0.4297
 1761SOL    HW2 5462   6.512   1.039   3.836  0.1155  0.0960  0.7646
 1762SOL     OW 5463   5.753   2.935   2.506  0.3766  0.2913 -0.3404
 1762SOL    HW1 5464   5.747   2.851   2.560 -3.2179 -0.0881 -1.0821
 1762SOL    HW2 5465   5.741   3.014   2.567 -2.4323 -0.0899 -0.2436
 1763SOL     OW 5466   8.689   2.716   6.825  0.0304  0.2950 -0.1149
 1763SOL    HW1 5467   8.659   2.809   6.804  0.5461  1.4226  3.5413
 1763SOL    HW2 5468   8.789   2.713   6.834  0.0725 -0.7644 -0.6553
 1764SOL     OW 5469   7.509   8.163   0.649  0.2325 -0.0394  0.2089
 1764SOL    HW1 5470   7.605   8.132   0.651 -0.0247 -0.9052 -0.3212
 1764SOL    HW2 5471   7.493   8.225   0.726  1.1135 -0.2097  0.5482
 1765SOL     OW 5472   7.985   6.177   8.532  0.6163  0.5316 -0.2398
 1765SOL    HW1 5473   7.890   6.178   8.502  0.0336 -0.5889  1.3958
 1765SOL    HW2 5474   8.045   6.158   8.454 -0.5687  0.3664 -1.1351
 1766SOL     OW 5475   1.098   0.936   6.230 -0.5330 -0.3668 -0.0422
 1766SOL    HW1 5476   1.122   0.997   6.305 -2.8023  0.1086  0.3691
 1766SOL    HW2 5477   1.081   0.844   6.265 -1.7897 -0.0992  0.0918
 1767SOL     OW 5478   6.725   8.046   8.249  0.2874  0.0498  0.0414
 1767SOL    HW1 5479   6.661   8.031   8.174 -0.3571 -1.1527  0.7948
 1767SOL    HW2 5480   6.674   8.045   8.336  0.9924  1.5448  0.4952
 1768SOL     OW 5481   7.760   5.497   5.042 -0.8129  0.0449  0.0147
 1768SOL    HW1 5482   7.707   5.462   4.964  1.1466 -1.1549 -0.8775
 1768SOL    HW2 5483   7.849   5.450   5.045  1.1052  3.3890  0.1612
 1769SOL     OW 5484   0.700   8.090   1.848 -0.1218 -0.0897 -0.4029
 1769SOL    HW1 5485   0.775   8.133   1.797 -2.3119  1.3062 -2.6856
 1769SOL    HW2 5486   0.708   7.991   1.841  2.2437 -0.0499  0.6586
 1770SOL     OW 5487   3.367   7.871   5.860  0.3380  0.1662  0.1989
 1770SOL    HW1 5488   3.437   7.878   5.930  0.8269 -1.2774 -0.1143
 1770SOL    HW2 5489   3.334   7.777   5.854  0.2239  0.2692 -1.4270
 1771SOL     OW 5490   2.895   1.987   0.812  0.1671  0.0582 -0.2053
 1771SOL    HW1 5491   2.986   1.948   0.800  0.2321  0.1197  0.0785
 1771SOL    HW2 5492   2.858   2.012   0.722  0.5568  0.3163 -0.3013
 1772SOL     OW 5493   6.747   4.260   6.507  0.2365  0.0493  0.6512
 1772SOL    HW1 5494   6.736   4.165   6.478 -0.0613  0.1208  0.5272
 1772SOL    HW2 5495   6.761   4.263   6.606  0.9675 -0.1754  0.5683
 1773SOL     OW 5496   5.356   1.623   1.877 -0.3755  0.3033  0.4335
 1773SOL    HW1 5497   5.345   1.565   1.796  2.1949 -1.0079  0.9199
 1773SOL    HW2 5498   5.356   1.719   1.849  3.5743 -0.1188 -1.7432
 1774SOL     OW 5499   8.058   7.970   8.830 -0.1963  0.2406 -0.2094
 1774SOL    HW1 5500   7.990   7.903   8.798 -0.9963  1.1079 -0.3648
 1774SOL    HW2 5501   8.127   7.983   8.759 -0.6047  0.3312 -0.5975
 1775SOL     OW 5502   3.947   2.920   0.881  0.4425 -0.3475  0.1076
 1775SOL    HW1 5503   3.921   2.872   0.797  0.9982  0.4884 -0.5593
 1775SOL    HW2 5504   4.043   2.901   0.902  1.3041  1.9307 -1.2725
 1776SOL     OW 5505   0.184   6.987   0.169 -0.0877 -0.5078  0.8385
 1776SOL    HW1 5506   0.113   7.013   0.234  0.0998 -0.8627  1.1872
 1776SOL    HW2 5507   0.232   6.907   0.202  0.6138 -0.1515  0.7011
 1777SOL     OW 5508   4.671   3.447   2.542 -0.4425  0.3704  0.0480
 1777SOL    HW1 5509   4.719   3.535   2.531  1.7605 -0.5333  1.6486
 1777SOL    HW2 5510   4.720   3.376   2.491 -1.3906 -0.2014 -0.0858
 1778SOL     OW 5511   6.680   7.369   3.246  0.0734 -0.2943  0.3464
 1778SOL    HW1 5512   6.620   7.430   3.298 -0.8221 -0.2886 -0.6692
 1778SOL    HW2 5513   6.690   7.283   3.296 -0.5097 -0.1657  0.6926
 1779SOL     OW 5514   4.302   7.280   1.589 -0.4849 -0.0885 -0.8596
 1779SOL    HW1 5515   4.387   7.244   1.551 -1.0212 -0.7846 -1.4293
 1779SOL    HW2 5516   4.227   7.216   1.572 -0.9396  0.0195  0.5519
 1780SOL     OW 5517   5.783   5.921   2.663 -0.1470 -0.5251  0.1987
 1780SOL    HW1 5518   5.844   5.997   2.641 -0.7608  0.4178  1.6286
 1780SOL    HW2 5519   5.833   5.853   2.717  0.2116 -0.8325 -0.4995
 1781SOL     OW 5520   6.403   0.463   7.330 -0.2741 -0.1963  0.3075
 1781SOL    HW1 5521   6.396   0.561   7.348  0.8579  0.5791 -2.8299
 1781SOL    HW2 5522   6.320   0.417   7.361 -1.4255  1.9704  0.5997
 1782SOL     OW 5523   3.304   1.313   8.663 -0.7653  0.1639  0.4410
 1782SOL    HW1 5524   3.316   1.409   8.638 -0.0141  0.0878  0.5013
 1782SOL    HW2 5525   3.207   1.288   8.654 -0.5683  0.0922 -2.5879
 1783SOL     OW 5526   0.543   0.506   7.649 -0.0507  0.3533  0.1425
 1783SOL    HW1 5527   0.547   0.410   7.676  1.4250 -0.1338 -1.6007
 1783SOL    HW2 5528   0.448   0.539   7.656 -0.7178 -1.4576  0.0477
 1784SOL     OW 5529   0.646   7.307   0.491 -0.4921 -0.2141 -0.4306
 1784SOL    HW1 5530   0.662   7.405   0.497 -0.0144 -0.0184 -3.3264
 1784SOL    HW2 5531   0.624   7.271   0.581  2.2082  2.0035  1.2828
 1785SOL     OW 5532   1.642   6.348   7.905  0.2482 -0.4824 -0.4346
 1785SOL    HW1 5533   1.616   6.440   7.875  2.0078 -0.4390 -2.0156
 1785SOL    HW2 5534   1.566   6.307   7.956 -0.6523  1.7470  0.1542
 1786SOL     OW 5535   6.547   8.287   2.222 -0.6187  0.1815 -0.2432
 1786SOL    HW1 5536   6.598   8.271   2.306 -0.9152  0.6810  0.0342
 1786SOL    HW2 5537   6.450   8.295   2.242 -0.5869  1.3058 -0.4922
 1787SOL     OW 5538   8.298   5.412   1.058  0.1137  0.1684  0.0937
 1787SOL    HW1 5539   8.236   5.379   1.129 -2.5452 -2.7990 -3.2852
 1787SOL    HW2 5540   8.381   5.355   1.057  0.0619  0.0776  0.6223
 1788SOL     OW 5541   3.592   5.947   4.154 -0.3800 -0.2953 -0.0545
 1788SOL    HW1 5542   3.607   5.996   4.240 -1.7203 -0.6060  0.3706
 1788SOL    HW2 5543   3.518   5.882   4.165 -1.1159  0.2145 -1.6733
 1789SOL     OW 5544   4.685   4.620   3.020  0.2168 -0.1414  0.6783
 1789SOL    HW1 5545   4.744   4.584   2.948  0.5312  0.3799  0.6735
 1789SOL    HW2 5546   4.605   4.665   2.980  0.8855  1.0212  0.6117
 1790SOL     OW 5547   0.288   0.319   2.212 -0.1398 -0.4839 -0.4103
 1790SOL    HW1 5548   0.388   0.316   2.204 -0.0872 -1.7923  0.4097
 1790SOL    HW2 5549   0.257   0.241   2.266 -1.6004  0.0198 -0.4839
 1791SOL     OW 5550   0.105   1.996   2.059  0.9164 -0.4443  0.2394
 1791SOL    HW1 5551   0.105   1.977   2.158  3.5638  1.7404  0.7912
 1791SOL    HW2 5552   0.186   2.051   2.036 -1.3482  2.0529 -2.5814
 1792SOL     OW 5553   3.303   7.857   6.252 -0.4239  0.0496  0.4469
 1792SOL    HW1 5554   3.220   7.892   6.210  1.7077  2.9289 -1.8270
 1792SOL    HW2 5555   3.379   7.867   6.187  1.7972 -2.0350  2.5516
 1793SOL     OW 5556   8.732   2.761   8.071  0.1952  0.1414 -0.0939
 1793SOL    HW1 5557   8.787   2.800   8.145 -1.2124  0.8864  0.6046
 1793SOL    HW2 5558   8.641   2.737   8.106 -0.2650 -0.1493 -1.4308
 1794SOL     OW 5559   6.391   1.451   6.354  0.3611  0.5637 -0.3324
 1794SOL    HW1 5560   6.338   1.379   6.308  0.8243 -0.3916  0.5769
 1794SOL    HW2 5561   6.419   1.419   6.444 -0.8096  2.5397  0.7904
 1795SOL     OW 5562   0.206   5.919   3.702  0.2347  0.1503  0.3824
 1795SOL    HW1 5563   0.141   5.844   3.703  0.3768 -0.0157 -0.7052
 1795SOL    HW2 5564   0.289   5.891   3.653  0.2763  1.0036 -0.0769
 1796SOL     OW 5565   7.205   8.608   2.259  0.2466  0.2236 -0.6140
 1796SOL    HW1 5566   7.110   8.635   2.273 -0.4120 -2.4249  0.6385
 1796SOL    HW2 5567   7.209   8.538   2.188  1.3393  0.5629 -0.9011
 1797SOL     OW 5568   1.191   8.219   2.611  0.5436  0.0882 -0.1031
 1797SOL    HW1 5569   1.274   8.200   2.558  0.5788 -0.3450  0.1102
 1797SOL    HW2 5570   1.198   8.178   2.702  0.0780  0.0078 -0.0984
 1798SOL     OW 5571   0.264   2.305   3.346 -0.1042  0.0111  0.1764
 1798SOL    HW1 5572   0.185   2.262   3.390 -0.0301  0.1584  0.4619
 1798SOL    HW2 5573   0.233   2.372   3.279 -0.2277  0.2013  0.4189
 1799SOL     OW 5574   5.180   1.755   0.503  0.0523 -0.1499  0.6251
 1799SOL    HW1 5575   5.144   1.704   0.581 -1.7726 -3.1716 -1.9539
 1799SOL    HW2 5576   5.264   1.713   0.471  0.2678  0.4649  0.3540
 1800SOL     OW 5577   5.414   2.655   6.987  0.1095  0.3266  0.1092
 1800SOL    HW1 5578   5.491   2.654   7.050  0.9598  0.0714 -0.9178
 1800SOL    HW2 5579   5.348   2.724   7.016 -0.6565 -1.3207  2.6088
 1801SOL     OW 5580   3.145   5.003   2.738 -0.5685  0.1325 -0.0933
 1801SOL    HW1 5581   3.233   5.007   2.786 -1.2793  1.6051  1.2148
 1801SOL    HW2 5582   3.156   4.955   2.652  1.5233  0.2865  0.0270
 1802SOL     OW 5583   1.605   8.182   1.885 -0.5561 -0.1436  0.0305
 1802SOL    HW1 5584   1.687   8.185   1.942 -0.9849  2.7291  0.6993
 1802SOL    HW2 5585   1.538   8.120   1.925  0.9043 -1.8103 -0.0182
 1803SOL     OW 5586   2.814   4.805   5.405  0.2409  0.1498 -0.2048
 1803SOL    HW1 5587   2.763   4.803   5.491  1.7537 -0.5604  0.7361
 1803SOL    HW2 5588   2.760   4.851   5.335 -0.3362  2.4669  1.6039
 1804SOL     OW 5589   6.202   6.074   8.618 -0.2643  0.2048 -0.8701
 1804SOL    HW1 5590   6.106   6.072   8.646  0.2625  0.8312  1.1549
 1804SOL    HW2 5591   6.257   6.020   8.683  0.8741  0.5875 -1.4840
 1805SOL     OW 5592   0.503   8.623   5.186  0.6455  0.2080  0.2670
 1805SOL    HW1 5593   0.520   8.663   5.276 -0.2806 -0.6352  0.8343
 1805SOL    HW2 5594   0.575   8.556   5.166  0.3681 -0.2498  0.7791
 1806SOL     OW 5595   5.579   1.667   2.300 -0.8166 -0.0114  0.8088
 1806SOL    HW1 5596   5.489   1.649   2.260 -1.4349  0.9962  1.6866
 1806SOL    HW2 5597   5.647   1.673   2.227 -1.4730 -0.6459  0.1212
 1807SOL     OW 5598   4.994   7.470   3.097 -0.7264  0.2347  0.1564
 1807SOL    HW1 5599   4.936   7.551   3.098 -1.7926 -0.4655  3.1214
 1807SOL    HW2 5600   5.077   7.487   3.150 -1.0500 -0.6660  0.9659
 1808SOL     OW 5601   1.834   8.289   0.606 -0.5940  0.2524 -0.1416
 1808SOL    HW1 5602   1.825   8.368   0.667  3.3740 -0.1863  1.2717
 1808SOL    HW2 5603   1.805   8.207   0.654 -0.9683  0.3579 -0.1838
 1809SOL     OW 5604   5.069   6.904   2.147  0.3090  0.2431  0.6339
 1809SOL    HW1 5605   5.136   6.832   2.163 -0.1503 -0.1215  0.9567
 1809SOL    HW2 5606   5.116   6.992   2.142  1.0664 -0.2299 -1.3864
 1810SOL     OW 5607   3.876   5.364   4.217 -0.1833 -0.2287 -0.2746
 1810SOL    HW1 5608   3.809   5.302   4.257 -2.2197  0.6360 -2.1162
 1810SOL    HW2 5609   3.863   5.368   4.117  0.5774  2.2693 -0.3605
 1811SOL     OW 5610   0.837   7.168   7.496 -0.6424  0.0288  0.4059
 1811SOL    HW1 5611   0.916   7.174   7.557  0.6027 -0.9221 -1.0131
 1811SOL    HW2 5612   0.824   7.255   7.449 -0.2327  0.0942  0.4102
 1812SOL     OW 5613   3.658   5.001   8.438 -0.1134 -0.0046  0.0858
 1812SOL    HW1 5614   3.658   4.946   8.354  0.0021 -0.3390  0.3046
 1812SOL    HW2 5615   3.608   4.953   8.510  0.5216 -0.1101  0.4621
 1813SOL     OW 5616   0.395   0.302   2.887  0.5428  0.0059  0.1285
 1813SOL    HW1 5617   0.465   0.257   2.943 -0.2481 -2.6312 -0.8318
 1813SOL    HW2 5618   0.425   0.305   2.792  0.4024  1.2083  0.1127
 1814SOL     OW 5619   4.687   5.910   3.396  0.0937 -0.0287 -0.0041
 1814SOL    HW1 5620   4.771   5.904   3.343  1.2119 -1.8450  1.8634
 1814SOL    HW2 5621   4.612   5.869   3.343  0.8981 -0.6800 -0.6734
 1815SOL     OW 5622   8.534   4.762   0.960  0.1371 -0.2990 -0.7094
 1815SOL    HW1 5623   8.543   4.662   0.964  0.1478 -0.2753  0.4936
 1815SOL    HW2 5624   8.526   4.798   1.054 -2.8864  0.5473 -1.1786
 1816SOL     OW 5625   0.975   2.234   2.807  0.2553 -0.0019 -0.1102
 1816SOL    HW1 5626   0.971   2.328   2.842  0.7161 -0.4915  1.3331
 1816SOL    HW2 5627   1.068   2.213   2.779 -0.1307  0.4203 -1.8262
 1817SOL     OW 5628   0.281   2.523   2.408  0.2100  0.1439  0.3301
 1817SOL    HW1 5629   0.263   2.532   2.310  1.5933 -0.3075  0.0157
 1817SOL    HW2 5630   0.342   2.597   2.437  0.4235 -0.1675  0.6828
 1818SOL     OW 5631   2.394   7.809   8.530  0.2412 -0.2979 -0.2205
 1818SOL    HW1 5632   2.444   7.847   8.452 -0.4469  1.8608  0.3408
 1818SOL    HW2 5633   2.452   7.810   8.611 -0.4722  1.8175  0.3322
 1819SOL     OW 5634   2.650   2.961   1.680  0.0894  0.5084 -0.3594
 1819SOL    HW1 5635   2.720   2.952   1.750  0.2272  0.9941 -0.4321
 1819SOL    HW2 5636   2.641   2.875   1.631 -0.0999  0.1176  0.3392
 1820SOL     OW 5637   8.329   2.025   5.375 -0.2468 -0.4323 -0.3809
 1820SOL    HW1 5638   8.278   1.939   5.376 -0.4443 -0.3111  0.0292
 1820SOL    HW2 5639   8.424   2.007   5.398 -0.3453 -0.5047 -0.0260
 1821SOL     OW 5640   5.729   0.598   2.173  0.1192 -0.4046 -0.3965
 1821SOL    HW1 5641   5.743   0.504   2.144  1.5291 -0.4505  0.3455
 1821SOL    HW2 5642   5.816   0.636   2.207 -0.6595  0.8054  0.3223
 1822SOL     OW 5643   1.481   1.949   3.576  0.0437  0.4562 -0.0468
 1822SOL    HW1 5644   1.400   2.000   3.603  0.4735  1.1778 -0.0771
 1822SOL    HW2 5645   1.507   1.886   3.649  0.1700  1.1236  0.5037
 1823SOL     OW 5646   2.823   5.441   6.481  0.2072  0.2157  0.3022
 1823SOL    HW1 5647   2.746   5.427   6.544 -0.0574 -2.6899 -0.5253
 1823SOL    HW2 5648   2.905   5.398   6.519  1.1091  1.9554  0.4487
 1824SOL     OW 5649   6.331   2.309   6.698  0.3476  0.2507 -0.1344
 1824SOL    HW1 5650   6.357   2.276   6.789  0.5061 -1.0037 -0.6125
 1824SOL    HW2 5651   6.336   2.409   6.696  1.7758  0.2361  0.8217
 1825SOL     OW 5652   6.256   7.640   4.769 -0.4147  0.3702  0.1143
 1825SOL    HW1 5653   6.256   7.541   4.785 -1.3595  0.4483  0.6342
 1825SOL    HW2 5654   6.267   7.688   4.856 -0.2107  0.7339 -0.1091
 1826SOL     OW 5655   2.412   4.970   8.628 -0.4269 -0.7297  0.3466
 1826SOL    HW1 5656   2.464   4.930   8.553 -0.3370 -1.9097  1.0056
 1826SOL    HW2 5657   2.422   5.069   8.627  0.1967 -0.7905 -0.7323
 1827SOL     OW 5658   1.862   8.730   5.401  0.3757  0.2139  0.3408
 1827SOL    HW1 5659   1.937   8.710   5.338  0.0143  1.1099 -0.3972
 1827SOL    HW2 5660   1.775   8.726   5.352  0.1800  2.1548  0.4592
 1828SOL     OW 5661   4.022   3.854   2.978  0.3297  0.2246 -0.7769
 1828SOL    HW1 5662   4.059   3.946   2.987 -2.0573  1.2055 -0.1747
 1828SOL    HW2 5663   4.059   3.795   3.049  0.2743  1.3133  0.1769
 1829SOL     OW 5664   1.502   2.883   1.842 -0.4982 -0.9102  0.5273
 1829SOL    HW1 5665   1.422   2.824   1.839 -1.7409  0.6852  0.7248
 1829SOL    HW2 5666   1.562   2.856   1.918 -1.7054 -1.1016  1.4357
 1830SOL     OW 5667   4.498   4.782   4.621  0.2510  0.2933  0.1850
 1830SOL    HW1 5668   4.554   4.724   4.562 -0.6127 -2.6274  2.0024
 1830SOL    HW2 5669   4.402   4.776   4.592  0.3174  2.0579 -0.4920
 1831SOL     OW 5670   2.053   8.536   4.013 -0.1413  0.2230 -0.4181
 1831SOL    HW1 5671   2.096   8.461   3.963 -0.6374 -0.2053 -0.2137
 1831SOL    HW2 5672   1.974   8.570   3.962 -0.3974  0.0672 -0.1303
 1832SOL     OW 5673   7.050   5.771   8.587  0.0028  0.5710  0.3676
 1832SOL    HW1 5674   7.019   5.677   8.578 -2.1847  1.1084  1.4976
 1832SOL    HW2 5675   7.146   5.778   8.557  0.6070 -2.2146  1.3288
 1833SOL     OW 5676   6.102   7.215   4.051 -0.2384 -0.1155  0.6104
 1833SOL    HW1 5677   6.107   7.127   4.004 -1.4643  0.0696  0.1140
 1833SOL    HW2 5678   6.170   7.217   4.125 -0.3816 -1.5783  0.8142
 1834SOL     OW 5679   5.454   7.569   2.552 -0.2688  0.9599  0.7887
 1834SOL    HW1 5680   5.509   7.544   2.472  1.6322  0.1441  2.2795
 1834SOL    HW2 5681   5.406   7.655   2.533 -1.0468  0.0821 -1.7178
 1835SOL     OW 5682   1.143   6.163   6.013 -0.4203  0.0276 -0.2081
 1835SOL    HW1 5683   1.100   6.075   6.035 -2.3210  0.7937 -0.6209
 1835SOL    HW2 5684   1.167   6.165   5.916 -0.4071 -0.0298 -0.2063
 1836SOL     OW 5685   0.670   4.184   3.504 -0.1362  0.5612 -0.4196
 1836SOL    HW1 5686   0.711   4.154   3.418  1.1256  1.0602 -0.0084
 1836SOL    HW2 5687   0.663   4.106   3.566  2.2763  0.8496  0.3082
 1837SOL     OW 5688   6.424   0.063   5.316  0.1269  0.1442 -0.7677
 1837SOL    HW1 5689   6.422   0.143   5.377 -0.3479 -1.2879  1.2278
 1837SOL    HW2 5690   6.339   0.060   5.263 -0.9303 -0.2207  0.8589
 1838SOL     OW 5691   3.155   5.643   3.399 -0.6310 -0.3585 -0.3176
 1838SOL    HW1 5692   3.137   5.671   3.304  0.6083 -0.5651 -0.6394
 1838SOL    HW2 5693   3.228   5.701   3.437  0.0768 -1.3798 -0.0822
 1839SOL     OW 5694   7.091   2.440   7.341 -0.0228 -0.1779  0.0098
 1839SOL    HW1 5695   7.147   2.433   7.258 -0.4719  1.0494 -0.4182
 1839SOL    HW2 5696   7.074   2.537   7.362 -1.1007 -0.5039  0.7342
 1840SOL     OW 5697   0.342   1.711   4.191 -0.1619  0.4456 -0.5877
 1840SOL    HW1 5698   0.422   1.676   4.240 -0.4852  0.5370  0.0081
 1840SOL    HW2 5699   0.269   1.643   4.193 -0.5641  0.8843  0.0169
 1841SOL     OW 5700   7.310   5.170   5.738 -0.2125 -0.5723 -0.2316
 1841SOL    HW1 5701   7.356   5.155   5.651 -0.3229 -3.1589  0.0846
 1841SOL    HW2 5702   7.311   5.085   5.792 -0.1662  0.9179  2.2914
 1842SOL     OW 5703   6.612   4.027   6.353  0.1675 -0.5489 -0.5100
 1842SOL    HW1 5704   6.563   4.099   6.303  0.2868  2.0277  2.7102
 1842SOL    HW2 5705   6.545   3.970   6.402  0.1883 -0.8235 -0.7983
 1843SOL     OW 5706   4.124   8.790   7.244  0.3638  0.4518  0.3302
 1843SOL    HW1 5707   4.049   8.851   7.270  0.2793  0.1775  0.7564
 1843SOL    HW2 5708   4.091   8.722   7.179  0.0067 -0.2095  1.1759
 1844SOL     OW 5709   0.226   2.590   5.129 -0.1644  0.1864 -0.3861
 1844SOL    HW1 5710   0.253   2.654   5.201 -2.7662  1.1420 -0.1787
 1844SOL    HW2 5711   0.147   2.626   5.080 -0.0008 -1.6278 -2.0963
 1845SOL     OW 5712   4.457   7.150   1.199 -0.2455  0.2719  0.0754
 1845SOL    HW1 5713   4.502   7.062   1.213  2.0182  1.3084 -0.2247
 1845SOL    HW2 5714   4.428   7.158   1.104 -1.5992 -0.6025  0.3852
 1846SOL     OW 5715   1.940   3.210   1.609 -0.7192  0.2842  0.4661
 1846SOL    HW1 5716   1.896   3.282   1.556  0.1099  0.5991  0.1800
 1846SOL    HW2 5717   2.030   3.191   1.570 -1.9151 -2.8109 -1.1695
 1847SOL     OW 5718   8.424   7.938   0.962 -0.1251  0.1115 -0.1587
 1847SOL    HW1 5719   8.443   7.839   0.961 -2.8351 -0.5705  2.5090
 1847SOL    HW2 5720   8.421   7.970   1.057 -2.9450  1.9279 -0.7650
 1848SOL     OW 5721   8.309   4.434   2.471  0.0774 -0.2415 -0.0236
 1848SOL    HW1 5722   8.316   4.354   2.412 -1.1558 -0.5265  0.2116
 1848SOL    HW2 5723   8.401   4.468   2.491  0.5503 -0.0039 -2.2819
 1849SOL     OW 5724   4.282   6.696   2.739  0.0984  0.4586  0.8698
 1849SOL    HW1 5725   4.351   6.643   2.690  0.8622  1.1515  1.1659
 1849SOL    HW2 5726   4.297   6.687   2.837 -1.1748 -0.5972  0.9873
 1850SOL     OW 5727   5.700   0.405   4.678 -0.2927  0.1626 -0.0513
 1850SOL    HW1 5728   5.649   0.340   4.623 -1.0585 -0.3965  1.2587
 1850SOL    HW2 5729   5.772   0.358   4.729 -0.3868  0.4540  0.3601
 1851SOL     OW 5730   0.139   6.025   0.758 -0.1726  0.5416 -0.2076
 1851SOL    HW1 5731   0.039   6.027   0.746 -0.0994  0.1950 -0.9269
 1851SOL    HW2 5732   0.160   6.027   0.855 -0.8108  3.2803 -0.0356
 1852SOL     OW 5733   5.693   5.963   4.985 -0.0183 -0.5779  0.1704
 1852SOL    HW1 5734   5.764   6.001   4.926 -2.1867  0.0585 -2.2385
 1852SOL    HW2 5735   5.717   5.869   5.010  2.2670  0.0735  0.6374
 1853SOL     OW 5736   2.941   3.329   3.310  0.4484 -0.0048 -0.2760
 1853SOL    HW1 5737   3.023   3.304   3.361  0.5225  1.1804  0.2216
 1853SOL    HW2 5738   2.886   3.247   3.294  0.9424 -0.5745  0.7877
 1854SOL     OW 5739   6.195   0.300   4.432  0.2471  0.4191 -0.3117
 1854SOL    HW1 5740   6.108   0.253   4.445 -0.6837  1.7504 -1.3776
 1854SOL    HW2 5741   6.197   0.383   4.488  0.2890  1.0447 -1.2120
 1855SOL     OW 5742   1.790   0.613   7.559  0.1896  0.0620  0.1481
 1855SOL    HW1 5743   1.861   0.546   7.581  0.1053  0.0376  0.3520
 1855SOL    HW2 5744   1.830   0.691   7.512 -0.0375 -1.1977 -2.2991
 1856SOL     OW 5745   5.580   7.391   7.072  0.1792  0.6175  0.4132
 1856SOL    HW1 5746   5.635   7.351   6.998  1.7363  1.6579  0.9510
 1856SOL    HW2 5747   5.640   7.440   7.135 -1.2771  0.9021  1.6426
 1857SOL     OW 5748   7.948   5.935   7.224 -0.8216  0.5568 -0.1502
 1857SOL    HW1 5749   7.962   5.870   7.149  0.0441 -1.1150  1.3773
 1857SOL    HW2 5750   8.024   5.999   7.227  0.0338 -0.4446  0.2942
 1858SOL     OW 5751   2.687   4.629   7.304 -0.1046  1.2284  0.8524
 1858SOL    HW1 5752   2.658   4.725   7.300  0.0855  1.2680 -1.3665
 1858SOL    HW2 5753   2.784   4.625   7.325  0.2619  1.6811 -0.5741
 1859SOL     OW 5754   2.191   1.096   3.238 -0.1682 -0.0847 -0.6478
 1859SOL    HW1 5755   2.229   1.003   3.244  2.4368  0.9370  0.0432
 1859SOL    HW2 5756   2.207   1.132   3.146  0.2701  0.2496 -0.4400
 1860SOL     OW 5757   2.089   3.001   3.232  0.0522 -0.7990  0.0053
 1860SOL    HW1 5758   2.189   3.001   3.240  0.1657  0.9529 -1.0077
 1860SOL    HW2 5759   2.055   3.095   3.228 -1.8519 -1.2907  2.2981
 1861SOL     OW 5760   7.025   5.645   6.759 -0.0226  0.1612 -0.2998
 1861SOL    HW1 5761   7.004   5.740   6.735  0.7144  0.6267  0.8142
 1861SOL    HW2 5762   6.972   5.618   6.839 -0.9749 -0.7254 -1.1852
 1862SOL     OW 5763   5.577   2.127   4.118 -0.3700 -0.0190 -0.2610
 1862SOL    HW1 5764   5.632   2.078   4.184 -1.2182  1.0763  1.3272
 1862SOL    HW2 5765   5.564   2.071   4.036 -0.7676 -2.1455  1.1912
 1863SOL     OW 5766   8.478   2.393   2.229  0.2915 -0.0472  0.7865
 1863SOL    HW1 5767   8.435   2.436   2.308 -0.7374 -1.0580  0.8044
 1863SOL    HW2 5768   8.415   2.393   2.152  1.2113  0.7366  0.0118
 1864SOL     OW 5769   6.095   8.008   8.568 -0.2444 -0.4468 -0.3668
 1864SOL    HW1 5770   6.100   8.106   8.585  1.2969 -0.7962  1.5960
 1864SOL    HW2 5771   6.065   7.992   8.474 -0.4797  1.8828 -0.7558
 1865SOL     OW 5772   6.284   8.823   0.748 -0.1782 -0.1472 -0.1710
 1865SOL    HW1 5773   6.185   8.810   0.754 -0.1034 -0.1060  2.5903
 1865SOL    HW2 5774   6.311   8.899   0.807  1.4219  0.6262 -1.7983
 1866SOL     OW 5775   2.186   1.053   6.306  0.2530  0.0614  0.2545
 1866SOL    HW1 5776   2.281   1.083   6.314  0.1969  1.2820 -2.4221
 1866SOL    HW2 5777   2.129   1.107   6.368  0.9855  1.3095 -0.1123
 1867SOL     OW 5778   5.541   3.166   0.813  0.2712 -0.2412  0.5953
 1867SOL    HW1 5779   5.460   3.225   0.802 -0.6948 -1.6332 -0.0761
 1867SOL    HW2 5780   5.563   3.123   0.726  1.1413 -0.6373  1.0006
 1868SOL     OW 5781   7.361   5.411   7.374 -0.0660 -0.3320  0.2341
 1868SOL    HW1 5782   7.322   5.349   7.442  1.4150 -0.1053  1.3444
 1868SOL    HW2 5783   7.412   5.483   7.420  0.2283  0.3578 -1.1105
 1869SOL     OW 5784   1.572   1.363   4.241 -0.0750  0.3577  0.4869
 1869SOL    HW1 5785   1.637   1.287   4.237 -0.1002  0.2952  1.2037
 1869SOL    HW2 5786   1.538   1.374   4.334 -1.1329  0.3659  0.1209
 1870SOL     OW 5787   2.401   3.695   4.305 -0.4415 -0.3268  0.4088
 1870SOL    HW1 5788   2.440   3.746   4.228 -1.1770 -0.6557 -0.1958
 1870SOL    HW2 5789   2.444   3.605   4.310 -0.4657 -0.3446  0.3132
 1871SOL     OW 5790   1.325   3.946   6.640  0.1504 -0.1506 -0.6331
 1871SOL    HW1 5791   1.323   3.924   6.542 -0.5133  1.6456 -1.0641
 1871SOL    HW2 5792   1.258   3.890   6.688  1.8456 -2.5082 -0.8139
 1872SOL     OW 5793   0.289   3.713   7.564 -0.2376 -0.1352  0.2136
 1872SOL    HW1 5794   0.289   3.795   7.507  0.9370  0.2454  0.7334
 1872SOL    HW2 5795   0.289   3.631   7.506  1.7217  0.2384 -0.3782
 1873SOL     OW 5796   5.836   1.191   8.785  0.2932 -0.4906 -0.3158
 1873SOL    HW1 5797   5.822   1.106   8.836 -0.6655 -0.1657 -0.0143
 1873SOL    HW2 5798   5.750   1.240   8.779  0.5281 -0.2245 -1.7378
 1874SOL     OW 5799   6.560   6.246   2.359 -0.5932 -1.6772 -0.3451
 1874SOL    HW1 5800   6.539   6.337   2.324  0.6879 -1.4674 -0.6416
 1874SOL    HW2 5801   6.601   6.191   2.286  2.8606 -0.9838  0.8808
 1875SOL     OW 5802   0.365   1.915   5.237 -0.5709 -0.2524  0.0037
 1875SOL    HW1 5803   0.364   1.825   5.280 -2.7355 -0.6364 -0.7390
 1875SOL    HW2 5804   0.304   1.977   5.287 -1.6686 -0.1762 -1.3574
 1876SOL     OW 5805   7.124   3.168   4.715  0.3711  0.3944  0.1842
 1876SOL    HW1 5806   7.101   3.158   4.618  1.4847  0.1509 -0.0761
 1876SOL    HW2 5807   7.136   3.078   4.756  0.0977  0.5014  0.4997
 1877SOL     OW 5808   1.740   5.237   1.716 -0.2474 -0.0688  0.0263
 1877SOL    HW1 5809   1.682   5.155   1.713  1.2022 -1.2060  1.2735
 1877SOL    HW2 5810   1.831   5.214   1.682 -0.0440  1.2573 -0.3644
 1878SOL     OW 5811   0.102   5.559   4.778  0.5717 -0.1435 -0.1930
 1878SOL    HW1 5812   0.024   5.535   4.720  0.6235  0.1813 -0.4026
 1878SOL    HW2 5813   0.177   5.591   4.721  0.0173  1.8801  0.1191
 1879SOL     OW 5814   5.910   4.366   5.029 -0.1744  0.0926 -0.1039
 1879SOL    HW1 5815   5.897   4.426   5.108 -1.1948 -1.5351  1.0452
 1879SOL    HW2 5816   6.007   4.344   5.019  0.2149  1.9081 -0.5702
 1880SOL     OW 5817   4.770   7.409   4.668  0.1012 -0.1387  0.0280
 1880SOL    HW1 5818   4.776   7.505   4.692  0.7763 -0.0764 -0.3539
 1880SOL    HW2 5819   4.841   7.387   4.601  1.0945 -1.2787  1.3833
 1881SOL     OW 5820   0.927   5.574   7.604  0.0862 -0.0038 -0.4179
 1881SOL    HW1 5821   0.891   5.650   7.659 -0.8815  0.8550 -2.1397
 1881SOL    HW2 5822   0.853   5.510   7.584  0.5982 -0.7006 -0.1463
 1882SOL     OW 5823   6.010   5.103   6.558 -0.1224  0.2669 -0.0891
 1882SOL    HW1 5824   5.958   5.152   6.489 -1.2198 -0.2154  0.3834
 1882SOL    HW2 5825   5.951   5.037   6.604  0.4403  0.9415  1.6683
 1883SOL     OW 5826   1.549   2.241   4.501 -0.0823  0.1835  0.8530
 1883SOL    HW1 5827   1.569   2.268   4.595 -3.1837  0.4536  1.5455
 1883SOL    HW2 5828   1.497   2.314   4.455  0.8246 -0.2068 -0.8983
 1884SOL     OW 5829   7.867   2.483   5.813  0.2422 -0.0056 -0.0436
 1884SOL    HW1 5830   7.953   2.440   5.840 -0.5902 -1.8980 -0.2677
 1884SOL    HW2 5831   7.792   2.419   5.828 -1.5107  2.4209  2.5840
 1885SOL     OW 5832   2.057   3.151   2.542  0.6750 -0.1962 -0.1637
 1885SOL    HW1 5833   2.068   3.237   2.491 -1.1279 -1.0188 -2.0905
 1885SOL    HW2 5834   1.989   3.094   2.497  0.8947 -2.1424  1.7857
 1886SOL     OW 5835   1.275   4.521   5.917 -0.1674 -0.3694  0.1187
 1886SOL    HW1 5836   1.358   4.520   5.861  1.0505  1.4951  1.7396
 1886SOL    HW2 5837   1.280   4.446   5.984 -0.1411 -0.6912 -0.2384
 1887SOL     OW 5838   0.080   0.069   7.980 -0.0008  0.2697 -0.0681
 1887SOL    HW1 5839   0.142   0.018   8.039  0.2151  0.3442 -0.2303
 1887SOL    HW2 5840   0.131   0.109   7.904 -0.3180 -0.0240 -0.4364
 1888SOL     OW 5841   2.424   1.732   7.176 -0.1000 -0.1107 -0.2658
 1888SOL    HW1 5842   2.454   1.680   7.256  2.0652  1.0285 -0.2426
 1888SOL    HW2 5843   2.501   1.786   7.141 -1.1550 -0.0944 -2.7688
 1889SOL     OW 5844   6.597   0.981   3.357  0.6956 -0.2759  0.4317
 1889SOL    HW1 5845   6.507   0.969   3.399  0.6314  1.7059  0.9396
 1889SOL    HW2 5846   6.619   0.900   3.301 -1.8952 -0.3035 -0.6589
 1890SOL     OW 5847   1.272   1.895   3.260 -0.5086 -0.2243  0.2121
 1890SOL    HW1 5848   1.195   1.872   3.319 -1.7634  0.1175 -1.2438
 1890SOL    HW2 5849   1.302   1.989   3.279 -1.7307  0.3349 -0.5328
 1891SOL     OW 5850   4.055   6.774   4.826  0.7715  0.3081  0.7088
 1891SOL    HW1 5851   4.008   6.688   4.848  0.3175 -0.3484 -2.3993
 1891SOL    HW2 5852   3.996   6.851   4.850 -0.3812 -0.3870  0.1896
 1892SOL     OW 5853   8.380   5.468   2.351  0.0602 -0.5986 -0.3783
 1892SOL    HW1 5854   8.363   5.496   2.256  2.4028 -2.4364 -1.4530
 1892SOL    HW2 5855   8.477   5.477   2.372 -0.6337  1.4464  2.5258
 1893SOL     OW 5856   5.264   6.759   5.760 -0.5497  0.0290  0.3031
 1893SOL    HW1 5857   5.349   6.807   5.741 -0.1237 -0.3397  1.2406
 1893SOL    HW2 5858   5.259   6.676   5.705 -0.4610  0.2201  0.0048
 1894SOL     OW 5859   0.254   4.442   5.435 -0.1713  0.1037  0.8499
 1894SOL    HW1 5860   0.248   4.527   5.382 -0.5063 -0.5478 -0.2025
 1894SOL    HW2 5861   0.337   4.443   5.491 -0.6494  1.5092  1.5677
 1895SOL     OW 5862   1.125   0.184   3.454  0.2597 -0.2460  0.2428
 1895SOL    HW1 5863   1.177   0.100   3.436  1.1204 -0.5564  3.5871
 1895SOL    HW2 5864   1.179   0.246   3.510 -1.3836  1.4007  0.1105
 1896SOL     OW 5865   7.899   1.736   4.505 -0.6931  0.0822  0.5082
 1896SOL    HW1 5866   7.906   1.638   4.486 -0.6671  0.0465  0.6905
 1896SOL    HW2 5867   7.844   1.750   4.587  0.0299  0.1648  0.9948
 1897SOL     OW 5868   8.249   4.462   5.432  0.0153  0.5242  0.9230
 1897SOL    HW1 5869   8.326   4.510   5.474 -0.7189  1.1364  1.6156
 1897SOL    HW2 5870   8.283   4.400   5.362  0.9908  2.4453 -0.4148
 1898SOL     OW 5871   8.492   1.221   5.457  0.1571  0.3932  0.2463
 1898SOL    HW1 5872   8.464   1.313   5.432  0.3034  0.3846  0.0478
 1898SOL    HW2 5873   8.469   1.204   5.553 -1.3817  0.0433 -0.1556
 1899SOL     OW 5874   8.693   1.983   7.585 -0.4527  0.5432 -0.3906
 1899SOL    HW1 5875   8.750   1.978   7.503 -0.8369  0.4384 -0.6509
 1899SOL    HW2 5876   8.648   1.895   7.600  0.6417  0.1312  0.6795
 1900SOL     OW 5877   7.697   2.104   8.038 -0.5722 -0.1761  0.4135
 1900SOL    HW1 5878   7.707   2.004   8.047  1.0938 -0.0074  0.8879
 1900SOL    HW2 5879   7.669   2.126   7.945  0.6114 -1.0383 -0.1880
 1901SOL     OW 5880   0.276   0.292   0.978 -0.5599  0.0865  0.9712
 1901SOL    HW1 5881   0.186   0.332   0.958  0.9885  1.9652 -3.3755
 1901SOL    HW2 5882   0.276   0.196   0.951 -0.7984  0.5842 -0.9553
 1902SOL     OW 5883   3.184   6.230   1.089 -0.3126 -0.1439  0.5905
 1902SOL    HW1 5884   3.267   6.199   1.137 -0.1583 -1.1497 -0.2887
 1902SOL    HW2 5885   3.144   6.153   1.039 -0.6696  0.7931 -0.6091
 1903SOL     OW 5886   2.896   8.680   7.042  0.1944  0.1262  0.0832
 1903SOL    HW1 5887   2.929   8.679   6.948 -0.2990  0.1471 -0.0940
 1903SOL    HW2 5888   2.798   8.696   7.043  0.2697  0.5985  0.6263
 1904SOL     OW 5889   1.894   8.759   0.331 -0.3876 -0.0626  0.6765
 1904SOL    HW1 5890   1.874   8.661   0.340  0.0604 -0.1241  1.0087
 1904SOL    HW2 5891   1.935   8.793   0.415  1.8035 -0.1609 -0.2813
 1905SOL     OW 5892   6.047   7.447   2.425  0.1166 -0.8677 -0.1207
 1905SOL    HW1 5893   5.978   7.381   2.396 -0.6026 -0.7828  1.2900
 1905SOL    HW2 5894   6.006   7.538   2.431  0.7932 -0.5049 -0.8846
 1906SOL     OW 5895   8.483   7.257   1.085  0.8396 -0.0031 -0.0954
 1906SOL    HW1 5896   8.398   7.283   1.129 -0.1330 -0.8738 -1.3800
 1906SOL    HW2 5897   8.512   7.330   1.023  0.5967 -0.0440 -0.2570
 1907SOL     OW 5898   7.377   5.021   7.248 -0.3635 -0.4937 -0.1002
 1907SOL    HW1 5899   7.472   5.004   7.224 -0.3497 -1.4393  0.5733
 1907SOL    HW2 5900   7.362   5.001   7.345 -1.6339 -2.1404 -0.5826
 1908SOL     OW 5901   0.234   4.661   5.025 -0.4767 -0.1409  0.2042
 1908SOL    HW1 5902   0.153   4.691   4.974 -0.1105 -0.7318 -0.7522
 1908SOL    HW2 5903   0.237   4.561   5.028  0.7715 -0.1571 -0.7168
 1909SOL     OW 5904   6.054   2.114   5.523 -0.0309  0.5715 -0.4906
 1909SOL    HW1 5905   6.007   2.176   5.585  1.6419  3.6870 -2.0930
 1909SOL    HW2 5906   6.152   2.113   5.544  0.0866 -0.9924 -0.9739
 1910SOL     OW 5907   1.217   3.375   4.549  0.1804 -0.5591 -0.6693
 1910SOL    HW1 5908   1.298   3.341   4.597  0.9117  2.3386  0.3297
 1910SOL    HW2 5909   1.135   3.347   4.600  0.7811 -0.1650  0.5686
 1911SOL     OW 5910   4.981   4.686   2.575 -0.2337 -0.1393  0.0165
 1911SOL    HW1 5911   4.992   4.593   2.611 -0.8891 -0.2985 -0.1828
 1911SOL    HW2 5912   4.910   4.734   2.628  0.3723  0.3791  0.3689
 1912SOL     OW 5913   8.141   6.440   1.559 -0.6354 -0.2759  0.2476
 1912SOL    HW1 5914   8.145   6.384   1.642 -0.8611 -0.7354 -0.0506
 1912SOL    HW2 5915   8.119   6.383   1.480 -0.8071  0.2195 -0.0726
 1913SOL     OW 5916   3.534   4.704   0.318  0.2332 -1.0170  0.2065
 1913SOL    HW1 5917   3.578   4.790   0.292  1.1252 -1.8381 -1.1268
 1913SOL    HW2 5918   3.435   4.712   0.307  0.2779 -0.0467  0.4526
 1914SOL     OW 5919   8.414   5.884   3.518 -0.1528 -0.3534  0.4530
 1914SOL    HW1 5920   8.461   5.904   3.432 -2.3178  1.2386 -0.4336
 1914SOL    HW2 5921   8.461   5.931   3.593 -0.2646  1.1844 -0.4029
 1915SOL     OW 5922   0.339   8.288   8.332  0.3448 -0.4698 -0.1443
 1915SOL    HW1 5923   0.294   8.201   8.311  0.4023 -0.5221 -0.0481
 1915SOL    HW2 5924   0.335   8.347   8.251  0.7521 -0.7553 -0.3777
 1916SOL     OW 5925   5.937   5.434   2.810  0.5196  0.3456 -0.6674
 1916SOL    HW1 5926   5.839   5.445   2.825  0.7128  2.5130 -0.6488
 1916SOL    HW2 5927   5.969   5.352   2.857 -1.3682 -0.7668 -1.2082
 1917SOL     OW 5928   6.881   3.165   3.453  0.2891  0.0314  0.1004
 1917SOL    HW1 5929   6.837   3.105   3.387  1.9609 -2.6857  1.2462
 1917SOL    HW2 5930   6.964   3.205   3.413 -0.9930  1.9796 -0.7688
 1918SOL     OW 5931   3.485   8.124   4.026  0.2593 -0.1675 -0.2846
 1918SOL    HW1 5932   3.457   8.069   4.105 -0.4053  0.0909 -0.3382
 1918SOL    HW2 5933   3.443   8.087   3.943 -0.7292  0.8086 -0.2346
 1919SOL     OW 5934   5.340   7.600   4.673  0.6011 -0.0378 -0.0359
 1919SOL    HW1 5935   5.388   7.559   4.750 -0.1754  2.3861  1.8484
 1919SOL    HW2 5936   5.241   7.593   4.688  0.4390  0.6529 -0.6981
 1920SOL     OW 5937   7.651   4.281   4.468  0.2110 -0.3135 -0.2725
 1920SOL    HW1 5938   7.693   4.232   4.545  0.0873 -1.1750 -0.7415
 1920SOL    HW2 5939   7.595   4.218   4.415 -1.5697  0.7545  0.2338
 1921SOL     OW 5940   1.332   0.758   4.281 -0.7537  0.3395  0.2186
 1921SOL    HW1 5941   1.337   0.667   4.241 -1.1499  1.1168 -1.6913
 1921SOL    HW2 5942   1.423   0.801   4.278 -1.2037  1.2514 -2.0505
 1922SOL     OW 5943   3.267   1.481   6.692  0.0447 -0.4172  0.3302
 1922SOL    HW1 5944   3.291   1.567   6.737 -2.3854  0.2870  0.4205
 1922SOL    HW2 5945   3.253   1.410   6.761 -2.1873  0.2791  0.6880
 1923SOL     OW 5946   7.895   0.831   8.318 -0.2397 -0.0987 -0.1937
 1923SOL    HW1 5947   7.907   0.798   8.412  0.7744  0.8047  0.0046
 1923SOL    HW2 5948   7.957   0.907   8.300  0.2164 -0.8213 -1.8921
 1924SOL     OW 5949   1.315   3.897   4.410  0.0356 -0.6207  0.3694
 1924SOL    HW1 5950   1.241   3.965   4.408  0.2146 -0.4077  0.8455
 1924SOL    HW2 5951   1.307   3.836   4.331  1.4276  1.6198 -1.6703
 1925SOL     OW 5952   3.802   5.804   3.501 -0.2465 -0.5698 -0.3077
 1925SOL    HW1 5953   3.851   5.889   3.516 -0.9117 -0.3220  0.5563
 1925SOL    HW2 5954   3.865   5.734   3.467  0.9418 -0.5354  1.6435
 1926SOL     OW 5955   6.267   1.545   4.158 -0.5058  0.5762 -0.5129
 1926SOL    HW1 5956   6.324   1.472   4.121 -1.4230 -0.1090 -0.6205
 1926SOL    HW2 5957   6.282   1.552   4.256  1.0454  1.5937 -0.7865
 1927SOL     OW 5958   5.472   2.800   1.195 -0.4114  0.0897 -0.4147
 1927SOL    HW1 5959   5.396   2.859   1.224 -0.0505  0.3482  0.0388
 1927SOL    HW2 5960   5.555   2.827   1.245  0.1024  0.1623 -1.2887
 1928SOL     OW 5961   7.569   0.068   3.566 -0.5764  0.3288 -0.1240
 1928SOL    HW1 5962   7.511   0.009   3.510  0.9855  0.0107 -1.5009
 1928SOL    HW2 5963   7.594   0.019   3.650 -0.8973 -0.2037 -0.3310
 1929SOL     OW 5964   0.433   8.011   3.801 -0.5117  0.1655  0.1934
 1929SOL    HW1 5965   0.447   8.109   3.813  2.0725 -0.2864  1.7375
 1929SOL    HW2 5966   0.509   7.961   3.842 -2.9734 -2.6209  1.8228
 1930SOL     OW 5967   0.986   5.525   2.200  0.1217 -0.1945 -0.5740
 1930SOL    HW1 5968   0.953   5.543   2.293  1.6213  0.3579 -0.1210
 1930SOL    HW2 5969   0.966   5.430   2.176  1.9465 -1.1291  1.3140
 1931SOL     OW 5970   1.321   5.270   4.561 -0.2516 -0.2821  0.1074
 1931SOL    HW1 5971   1.343   5.277   4.659 -1.3661 -0.9703  0.4287
 1931SOL    HW2 5972   1.394   5.221   4.514  0.4466  0.3256  0.5319
 1932SOL     OW 5973   0.257   3.436   4.450  0.0375 -0.7750  0.1517
 1932SOL    HW1 5974   0.219   3.397   4.534 -1.0592  2.1737  1.1705
 1932SOL    HW2 5975   0.183   3.454   4.385  0.4543 -0.2237 -0.1804
 1933SOL     OW 5976   8.684   2.537   5.076 -0.0673 -0.1119 -0.1535
 1933SOL    HW1 5977   8.667   2.535   5.175  1.2623 -0.2289  0.0852
 1933SOL    HW2 5978   8.754   2.605   5.055 -0.1522 -0.2725 -0.9990
 1934SOL     OW 5979   4.426   8.031   4.323 -0.2149 -0.1307 -0.7321
 1934SOL    HW1 5980   4.487   7.957   4.352 -0.0812  0.6595  1.0892
 1934SOL    HW2 5981   4.371   8.062   4.401 -2.2657 -0.1441 -2.0764
 1935SOL     OW 5982   3.195   4.533   7.093 -0.6744 -0.0495 -0.1439
 1935SOL    HW1 5983   3.162   4.439   7.107 -0.8389  0.1778  1.1590
 1935SOL    HW2 5984   3.240   4.565   7.177 -3.1443  2.0301  0.5289
 1936SOL     OW 5985   3.946   4.915   1.896 -0.6672 -0.3843  0.0075
 1936SOL    HW1 5986   3.901   4.862   1.825 -0.2351 -1.0243  0.2044
 1936SOL    HW2 5987   4.045   4.915   1.881 -0.6471  0.2167  0.1109
 1937SOL     OW 5988   4.431   4.787   5.004 -0.0135 -0.0718  0.2799
 1937SOL    HW1 5989   4.477   4.847   4.938 -0.7810  1.5997  1.2174
 1937SOL    HW2 5990   4.472   4.801   5.094 -0.3149 -0.8617  0.5411
 1938SOL     OW 5991   2.914   2.355   8.768 -0.4289 -0.3001 -0.5600
 1938SOL    HW1 5992   2.843   2.426   8.768  0.4384  0.5808 -0.3764
 1938SOL    HW2 5993   2.952   2.345   8.859  0.4058 -0.0344 -0.8743
 1939SOL     OW 5994   2.262   7.967   5.416 -0.1392  0.0482  0.9982
 1939SOL    HW1 5995   2.205   7.980   5.498  0.1429  2.4575  0.8879
 1939SOL    HW2 5996   2.206   7.982   5.334 -0.4186 -2.3427  0.6711
 1940SOL     OW 5997   6.813   1.287   5.129  0.2957 -0.7778  0.1524
 1940SOL    HW1 5998   6.813   1.276   5.229  0.1081 -0.2846  0.2095
 1940SOL    HW2 5999   6.907   1.305   5.099  0.4124 -1.3082  0.1951
 1941SOL     OW 6000   6.122   6.703   4.611 -0.3923 -0.1728  0.5068
 1941SOL    HW1 6001   6.030   6.665   4.614 -0.7603  0.5758 -0.5043
 1941SOL    HW2 6002   6.155   6.718   4.704 -1.1515 -0.7679  0.8856
 1942SOL     OW 6003   3.066   6.942   3.109 -0.3167  0.4560  0.3162
 1942SOL    HW1 6004   3.000   6.898   3.048 -1.0982  0.6602  0.9984
 1942SOL    HW2 6005   3.099   6.876   3.176  1.1784  0.0103 -0.8221
 1943SOL     OW 6006   4.962   1.932   0.169  0.6696  0.1499 -0.0544
 1943SOL    HW1 6007   5.024   1.881   0.108  1.3438  0.9525 -0.0598
 1943SOL    HW2 6008   4.927   1.871   0.239  2.2985 -0.1207  0.5784
 1944SOL     OW 6009   2.521   1.783   3.591 -0.2063 -0.2194 -0.1009
 1944SOL    HW1 6010   2.591   1.714   3.609  0.3059  0.1384 -0.6965
 1944SOL    HW2 6011   2.472   1.761   3.507  0.5037  0.5529 -0.7390
 1945SOL     OW 6012   1.284   8.495   5.998  0.1434  0.3519 -0.1395
 1945SOL    HW1 6013   1.324   8.577   6.038  0.0669  0.1987  0.2510
 1945SOL    HW2 6014   1.196   8.518   5.956 -0.9670  0.0715  1.8970
 1946SOL     OW 6015   4.411   2.546   1.484  0.9552 -0.1540 -0.0055
 1946SOL    HW1 6016   4.340   2.616   1.495  0.1072 -0.7304 -1.3944
 1946SOL    HW2 6017   4.409   2.483   1.561  0.2239  0.0874  0.1767
 1947SOL     OW 6018   6.980   3.571   6.122 -0.6243  0.0580  0.0255
 1947SOL    HW1 6019   7.001   3.539   6.030  1.0150  2.4655 -0.5352
 1947SOL    HW2 6020   7.059   3.619   6.160 -1.3350 -0.6866  2.6343
 1948SOL     OW 6021   0.600   1.291   7.357 -0.7402 -0.3971 -0.8378
 1948SOL    HW1 6022   0.601   1.201   7.314 -0.4423 -0.4891 -0.6440
 1948SOL    HW2 6023   0.622   1.282   7.455 -1.1421 -0.1618 -0.7242
 1949SOL     OW 6024   3.579   0.038   3.455  0.0318  0.1060  0.0850
 1949SOL    HW1 6025   3.648   0.107   3.480  1.9224 -1.7367  0.2106
 1949SOL    HW2 6026   3.571  -0.030   3.528 -0.4755 -0.7898 -0.7823
 1950SOL     OW 6027   7.174   2.894   7.726  0.0557  0.0135  0.0413
 1950SOL    HW1 6028   7.082   2.859   7.744 -0.9719  2.2469 -0.5614
 1950SOL    HW2 6029   7.224   2.829   7.669 -1.0706 -1.3275  0.5351
 1951SOL     OW 6030   3.978   0.288   6.355 -0.1272  0.2799  0.4111
 1951SOL    HW1 6031   4.013   0.250   6.441  0.4245 -0.0046  0.0709
 1951SOL    HW2 6032   4.031   0.250   6.279  0.9155  2.2251  0.0915
 1952SOL     OW 6033   3.911   7.012   7.507 -0.0382  0.2357 -0.7403
 1952SOL    HW1 6034   3.956   7.100   7.492 -1.3808  0.9329 -0.8664
 1952SOL    HW2 6035   3.900   6.996   7.605 -0.0519  0.3470 -0.7235
 1953SOL     OW 6036   3.701   4.051   6.993  0.0613  0.6417 -0.1187
 1953SOL    HW1 6037   3.639   4.116   7.035  0.7585  0.9531  0.4514
 1953SOL    HW2 6038   3.718   4.077   6.898  0.4227  1.3719  0.1354
 1954SOL     OW 6039   1.952   3.299   3.862  0.3899  0.0249 -0.4204
 1954SOL    HW1 6040   1.916   3.358   3.934  0.2374 -0.3461 -0.1903
 1954SOL    HW2 6041   1.961   3.205   3.897  1.8724  0.1672 -0.3777
 1955SOL     OW 6042   4.675   2.030   7.113 -0.1456  0.1409  0.6316
 1955SOL    HW1 6043   4.624   1.965   7.057 -1.4533  0.2580  1.6545
 1955SOL    HW2 6044   4.645   2.024   7.208 -0.1531  2.0980  0.7884
 1956SOL     OW 6045   4.589   6.829   5.768  0.2680 -0.3220 -0.3085
 1956SOL    HW1 6046   4.504   6.864   5.727 -0.1210  1.1593  1.5987
 1956SOL    HW2 6047   4.661   6.897   5.757 -0.0490  0.4750  1.9973
 1957SOL     OW 6048   5.095   1.243   1.194  0.8326 -0.2582  0.4767
 1957SOL    HW1 6049   5.096   1.338   1.228  1.1084 -0.1562  0.1893
 1957SOL    HW2 6050   5.107   1.244   1.095 -1.8665 -0.4317  0.0718
 1958SOL     OW 6051   1.183   1.956   0.926  0.3620 -0.4160  0.0733
 1958SOL    HW1 6052   1.164   1.866   0.964 -1.5299 -0.5378 -1.0487
 1958SOL    HW2 6053   1.105   1.987   0.871  1.3674  1.4762 -0.3930
 1959SOL     OW 6054   2.598   0.572   2.921  0.3011  0.1919 -0.6231
 1959SOL    HW1 6055   2.674   0.591   2.859 -0.2667  0.2008 -1.3272
 1959SOL    HW2 6056   2.564   0.480   2.905 -1.3198  0.9528 -1.9697
 1960SOL     OW 6057   2.388   1.300   4.235 -0.0894  0.3651  0.5445
 1960SOL    HW1 6058   2.450   1.259   4.168 -1.0031  0.9822 -0.7168
 1960SOL    HW2 6059   2.421   1.279   4.328  1.5105 -0.0363 -0.0746
 1961SOL     OW 6060   6.168   2.574   4.388  0.0928 -0.2286 -0.1404
 1961SOL    HW1 6061   6.151   2.655   4.332 -1.3858  0.0583  0.6698
 1961SOL    HW2 6062   6.173   2.600   4.485  3.0571 -0.6506 -0.0865
 1962SOL     OW 6063   7.986   0.156   4.948 -0.3577  0.1672 -0.4289
 1962SOL    HW1 6064   7.889   0.179   4.940 -0.1476  0.6576 -1.8524
 1962SOL    HW2 6065   8.041   0.232   4.912  0.4908 -0.6945 -0.9985
 1963SOL     OW 6066   0.139   4.050   3.070  0.0761 -0.5913  0.6713
 1963SOL    HW1 6067   0.195   4.008   2.999  1.5777  2.7184 -0.2636
 1963SOL    HW2 6068   0.074   4.114   3.029 -1.4523 -1.1442  2.0904
 1964SOL     OW 6069   4.972   6.740   5.497  0.3244 -0.4459  0.4858
 1964SOL    HW1 6070   4.884   6.769   5.461  0.2389 -1.5220 -0.2272
 1964SOL    HW2 6071   5.006   6.808   5.562 -0.6649  0.3468  0.1938
 1965SOL     OW 6072   6.885   6.306   0.995 -0.0431  0.4972 -0.0618
 1965SOL    HW1 6073   6.859   6.336   0.903 -1.3133 -1.8046 -0.5366
 1965SOL    HW2 6074   6.804   6.299   1.053  0.8127  2.5194  1.4989
 1966SOL     OW 6075   3.247   0.109   3.511 -0.1646  0.3305 -0.0182
 1966SOL    HW1 6076   3.343   0.099   3.484  0.2859  0.2140  1.5348
 1966SOL    HW2 6077   3.239   0.181   3.580 -1.0558 -0.3286  0.5858
 1967SOL     OW 6078   5.231   7.163   2.108  0.5234  0.1938 -0.0047
 1967SOL    HW1 6079   5.303   7.182   2.175  0.9430  0.5690 -0.5477
 1967SOL    HW2 6080   5.266   7.183   2.016  0.3028 -1.3000 -0.4415
 1968SOL     OW 6081   8.657   4.078   0.433 -0.0731 -0.1872  0.4407
 1968SOL    HW1 6082   8.750   4.047   0.455  1.0788  2.2636 -0.5841
 1968SOL    HW2 6083   8.605   4.002   0.395  2.4393 -1.0315 -1.5683
 1969SOL     OW 6084   0.560   4.274   8.081 -0.0266 -0.7929 -0.1676
 1969SOL    HW1 6085   0.575   4.233   8.171  1.5518 -0.5339 -0.2875
 1969SOL    HW2 6086   0.608   4.361   8.075  0.0929 -0.9230 -1.3485
 1970SOL     OW 6087   6.333   1.441   3.782  0.1329  0.1308  0.0428
 1970SOL    HW1 6088   6.385   1.377   3.724 -0.9190 -0.8626  0.1452
 1970SOL    HW2 6089   6.348   1.418   3.878 -1.8330 -1.3681  0.0662
 1971SOL     OW 6090   2.009   6.078   5.815 -0.1790  0.0055  0.3488
 1971SOL    HW1 6091   1.959   6.118   5.738  1.5643  3.6017  0.8950
 1971SOL    HW2 6092   1.955   6.087   5.898 -0.8423 -1.2353  0.0838
 1972SOL     OW 6093   8.218   7.028   0.662 -0.3490  0.0955 -0.3791
 1972SOL    HW1 6094   8.137   6.998   0.711 -0.2511 -0.6437 -0.6537
 1972SOL    HW2 6095   8.292   7.045   0.727 -0.1710 -1.0270 -0.2619
 1973SOL     OW 6096   1.060   4.778   3.534 -0.1850  0.4750  0.5711
 1973SOL    HW1 6097   0.961   4.785   3.520 -0.5352 -0.5144  2.2882
 1973SOL    HW2 6098   1.097   4.702   3.480 -0.6572 -0.1983  1.1851
 1974SOL     OW 6099   8.096   6.624   2.810 -0.0610 -0.2029  0.1829
 1974SOL    HW1 6100   8.146   6.556   2.756 -1.0230 -1.5977  0.9849
 1974SOL    HW2 6101   8.007   6.641   2.768  0.7848  1.8362 -0.9156
 1975SOL     OW 6102   7.720   4.189   3.370 -0.0748  0.1552 -0.3779
 1975SOL    HW1 6103   7.815   4.164   3.390  0.3901 -0.0627 -2.6753
 1975SOL    HW2 6104   7.713   4.288   3.358 -0.7888  0.6026  2.7634
 1976SOL     OW 6105   2.888   1.704   8.477 -0.3475  0.1603 -0.1692
 1976SOL    HW1 6106   2.824   1.723   8.552 -0.5695  0.6522 -0.4812
 1976SOL    HW2 6107   2.877   1.610   8.447  0.7778 -0.5298  1.4181
 1977SOL     OW 6108   5.835   1.032   0.664  0.8675 -0.4078 -0.2712
 1977SOL    HW1 6109   5.793   0.979   0.590 -0.8143  0.8037 -0.2498
 1977SOL    HW2 6110   5.867   0.970   0.735  0.5595 -1.4798 -1.0341
 1978SOL     OW 6111   1.494   4.829   1.520 -0.8319  0.6520 -0.1551
 1978SOL    HW1 6112   1.498   4.792   1.612 -1.2724  1.3588  0.1556
 1978SOL    HW2 6113   1.441   4.768   1.461 -0.8754  0.3948  0.1535
 1979SOL     OW 6114   3.540   1.897   1.308 -0.5702  0.1477  0.1845
 1979SOL    HW1 6115   3.625   1.943   1.333 -1.2365  1.9786 -0.7147
 1979SOL    HW2 6116   3.474   1.909   1.383 -0.1112 -1.1676  0.8295
 1980SOL     OW 6117   1.613   7.808   0.797 -0.4114  0.3768  0.0510
 1980SOL    HW1 6118   1.651   7.744   0.864  0.7230 -1.1708 -1.9573
 1980SOL    HW2 6119   1.585   7.757   0.715 -0.4487  2.3557 -1.2222
 1981SOL     OW 6120   2.958   4.103   8.169  0.4125 -0.2527 -0.5101
 1981SOL    HW1 6121   3.000   4.193   8.156 -1.9465  0.6126 -3.2888
 1981SOL    HW2 6122   2.887   4.110   8.239  0.5883 -0.1039 -0.3441
 1982SOL     OW 6123   8.830   2.676   1.384  0.4279 -0.1429 -0.3975
 1982SOL    HW1 6124   8.882   2.736   1.324  0.7657  1.0136  1.0146
 1982SOL    HW2 6125   8.869   2.677   1.476 -2.9575  2.1984  1.2591
 1983SOL     OW 6126   2.072   1.992   8.836 -0.3153  0.2874 -0.2609
 1983SOL    HW1 6127   2.042   2.030   8.924  1.9638  2.4569 -0.3201
 1983SOL    HW2 6128   2.117   1.904   8.852 -0.8998  0.1211  0.5833
 1984SOL     OW 6129   2.488   5.735   3.399  0.0214 -0.4569  0.1388
 1984SOL    HW1 6130   2.584   5.745   3.372  0.2519 -1.7060  0.4489
 1984SOL    HW2 6131   2.471   5.791   3.481  0.5399 -0.3833  0.2006
 1985SOL     OW 6132   5.893   1.431   6.202  0.7363 -0.1342 -0.1598
 1985SOL    HW1 6133   5.930   1.465   6.115  0.1881 -1.2590 -0.8571
 1985SOL    HW2 6134   5.950   1.463   6.277  1.8228  0.0156 -1.0225
 1986SOL     OW 6135   4.024   0.917   5.800 -0.1045  0.1144 -1.2156
 1986SOL    HW1 6136   4.056   0.839   5.745 -1.9664 -1.3826 -0.3077
 1986SOL    HW2 6137   4.059   0.909   5.893 -1.0728 -0.1898 -0.8672
 1987SOL     OW 6138   4.194   7.200   4.304  0.5577  0.1462  0.5675
 1987SOL    HW1 6139   4.235   7.150   4.380  0.1074 -1.8326 -0.4234
 1987SOL    HW2 6140   4.205   7.148   4.219  1.1267  2.3249 -0.7894
 1988SOL     OW 6141   2.661   1.135   3.612  0.0191 -0.0031 -0.2465
 1988SOL    HW1 6142   2.667   1.235   3.610  0.6030 -0.0403 -0.6321
 1988SOL    HW2 6143   2.681   1.103   3.705 -2.6951  0.3601  0.5523
 1989SOL     OW 6144   6.136   1.286   8.395  0.5558 -0.0749  0.0686
 1989SOL    HW1 6145   6.230   1.259   8.372  0.5238  0.4134 -0.6617
 1989SOL    HW2 6146   6.114   1.253   8.487  1.1034 -1.0395 -0.1280
 1990SOL     OW 6147   0.010   7.172   3.004  0.6057  0.0130 -0.4016
 1990SOL    HW1 6148  -0.003   7.126   2.916  1.1316 -1.0202  0.0409
 1990SOL    HW2 6149  -0.024   7.266   2.998  0.8032  0.0187 -1.7598
 1991SOL     OW 6150   5.803   2.865   4.190  0.0885  0.1559  0.2948
 1991SOL    HW1 6151   5.801   2.861   4.090  0.4363 -0.4955  0.3085
 1991SOL    HW2 6152   5.840   2.953   4.220  0.6331  0.0819 -0.1546
 1992SOL     OW 6153   1.329   8.854   3.412  0.6167 -0.2721  0.3628
 1992SOL    HW1 6154   1.318   8.755   3.416  2.1210 -0.4346  1.4625
 1992SOL    HW2 6155   1.424   8.878   3.434 -0.0421  1.4681  1.5550
 1993SOL     OW 6156   5.282   7.416   1.219 -0.7069 -0.4444 -0.0299
 1993SOL    HW1 6157   5.286   7.500   1.274 -1.4123 -0.6103  0.2869
 1993SOL    HW2 6158   5.189   7.403   1.185 -0.0049  0.3893 -2.4370
 1994SOL     OW 6159   6.620   2.823   3.915 -0.1457 -0.2700 -0.3165
 1994SOL    HW1 6160   6.643   2.873   3.832 -0.2751  0.0868 -0.1374
 1994SOL    HW2 6161   6.619   2.725   3.895 -0.9880 -0.1456 -0.9325
 1995SOL     OW 6162   7.018   7.102   3.861 -0.0290  0.1747 -0.2289
 1995SOL    HW1 6163   7.022   7.022   3.921 -0.2167  0.2778 -0.0800
 1995SOL    HW2 6164   7.091   7.166   3.884 -1.0110  0.9257  0.8950
 1996SOL     OW 6165   3.223   2.659   3.457 -0.1620 -0.2346  0.0967
 1996SOL    HW1 6166   3.138   2.624   3.497  0.2229 -0.9054  0.3482
 1996SOL    HW2 6167   3.296   2.654   3.525 -0.1066  1.1674  0.1732
 1997SOL     OW 6168   1.516   4.378   0.018  0.3778  0.1932 -0.4555
 1997SOL    HW1 6169   1.504   4.309   0.089 -1.6332  0.3310 -0.5965
 1997SOL    HW2 6170   1.608   4.416   0.024  0.0493  0.7612  2.5810
 1998SOL     OW 6171   0.122   6.908   8.290 -0.4229  0.2354  0.2740
 1998SOL    HW1 6172   0.037   6.897   8.342  1.1606  0.6972  3.2244
 1998SOL    HW2 6173   0.160   6.819   8.268 -1.0232  0.0293  0.0448
 1999SOL     OW 6174   5.991   4.466   4.404 -0.8391 -0.6702 -0.0042
 1999SOL    HW1 6175   5.913   4.514   4.363 -0.5811 -0.8642 -0.7170
 1999SOL    HW2 6176   5.964   4.432   4.495 -0.6339  2.0263  1.1799
 2000SOL     OW 6177   8.828   6.155   2.495  0.4167 -0.5694 -0.1894
 2000SOL    HW1 6178   8.913   6.143   2.546  1.3422 -0.0923 -1.5415
 2000SOL    HW2 6179   8.807   6.070   2.447 -0.5607 -1.0829  1.1101
 2001SOL     OW 6180   3.156   0.207   0.576  0.0040  0.0716 -0.1257
 2001SOL    HW1 6181   3.117   0.126   0.533 -2.0821  0.4791  0.8834
 2001SOL    HW2 6182   3.090   0.282   0.575 -0.0528  0.2524  3.2587
 2002SOL     OW 6183   6.347   1.169   4.936 -0.0530  0.1365 -0.5592
 2002SOL    HW1 6184   6.262   1.160   4.987 -1.0653  1.1976 -1.9793
 2002SOL    HW2 6185   6.424   1.171   4.999 -1.1507  0.0182  0.8173
 2003SOL     OW 6186   5.476   6.297   1.959 -0.3175  0.5115 -0.6047
 2003SOL    HW1 6187   5.531   6.374   1.992 -1.6111  1.5909 -0.8647
 2003SOL    HW2 6188   5.384   6.329   1.938 -0.8512 -1.1057 -0.8528
 2004SOL     OW 6189   2.049   1.714   0.830 -0.0793 -0.3815 -0.5493
 2004SOL    HW1 6190   2.065   1.807   0.862 -0.7956 -1.0127  1.9209
 2004SOL    HW2 6191   1.960   1.708   0.786 -0.5762 -0.1339  0.4092
 2005SOL     OW 6192   5.484   0.170   6.946 -0.5792 -0.0125  0.0013
 2005SOL    HW1 6193   5.522   0.139   6.860  0.2610  0.1695  0.2983
 2005SOL    HW2 6194   5.489   0.270   6.951  0.6897 -0.0973  0.8433
 2006SOL     OW 6195   5.033   7.113   3.122  0.1992  0.3232  0.0697
 2006SOL    HW1 6196   5.113   7.057   3.144  1.1859  1.2828 -0.9251
 2006SOL    HW2 6197   5.060   7.186   3.059 -1.8393 -0.4820 -1.8732
 2007SOL     OW 6198   2.369   7.252   5.105  0.0699 -0.2134 -0.3461
 2007SOL    HW1 6199   2.335   7.161   5.084  3.2601 -1.7450  0.4749
 2007SOL    HW2 6200   2.363   7.269   5.203  0.9888 -0.2315 -0.2812
 2008SOL     OW 6201   0.041   7.361   2.694  0.4123 -0.4914  0.1980
 2008SOL    HW1 6202   0.011   7.268   2.714  0.0873 -0.6402 -0.9440
 2008SOL    HW2 6203   0.085   7.399   2.775 -1.4156 -0.8377  1.4177
 2009SOL     OW 6204   6.086   3.741   5.795 -0.5911 -0.1957 -0.6317
 2009SOL    HW1 6205   6.127   3.831   5.782 -0.5227  0.2488  2.1120
 2009SOL    HW2 6206   5.989   3.745   5.768 -1.0127  1.1909  0.9379
 2010SOL     OW 6207   6.290   2.285   4.099  0.0513  0.5138 -0.3396
 2010SOL    HW1 6208   6.198   2.320   4.086 -0.4521 -0.7131 -0.2575
 2010SOL    HW2 6209   6.353   2.334   4.039 -0.5442  1.7645  0.0359
 2011SOL     OW 6210   1.120   5.858   7.487  0.4853 -0.1461  0.0550
 2011SOL    HW1 6211   1.030   5.818   7.504  1.5119 -2.0129  1.4229
 2011SOL    HW2 6212   1.177   5.849   7.568  1.2325  3.1279  0.0461
 2012SOL     OW 6213   6.869   1.037   2.561 -0.3059  0.1951 -0.2989
 2012SOL    HW1 6214   6.840   1.125   2.600 -2.5519 -0.1874 -0.9432
 2012SOL    HW2 6215   6.791   0.974   2.562  0.5548 -0.9555 -2.1604
 2013SOL     OW 6216   0.742   0.471   2.371 -0.0060  0.3795 -0.6300
 2013SOL    HW1 6217   0.785   0.380   2.372  2.2683  1.3960 -0.3912
 2013SOL    HW2 6218   0.752   0.512   2.280 -0.5736  0.6273 -0.5897
 2014SOL     OW 6219   7.020   2.939   2.173 -0.1019 -0.3991  0.4247
 2014SOL    HW1 6220   7.019   2.918   2.075 -1.3622  0.2987  0.2733
 2014SOL    HW2 6221   7.109   2.976   2.198 -0.0283  0.1862 -0.6344
 2015SOL     OW 6222   3.226   0.937   2.162 -0.3199  0.8742  0.1976
 2015SOL    HW1 6223   3.164   0.942   2.083  2.5535  1.0635 -2.2042
 2015SOL    HW2 6224   3.175   0.960   2.245 -3.5728  0.4097 -1.4928
 2016SOL     OW 6225   5.416   7.172   1.254 -0.3816 -0.7386  0.2144
 2016SOL    HW1 6226   5.481   7.206   1.186 -0.3837  0.7694  0.9117
 2016SOL    HW2 6227   5.332   7.225   1.248 -1.4306 -2.4142 -0.4127
 2017SOL     OW 6228   8.527   4.965   5.586 -0.4719  0.1349 -0.2827
 2017SOL    HW1 6229   8.476   5.000   5.664 -2.0131 -1.3939 -0.5476
 2017SOL    HW2 6230   8.597   5.031   5.559 -1.7435  1.9278  0.6399
 2018SOL     OW 6231   3.538   4.768   2.921  0.1349  0.3518 -0.0058
 2018SOL    HW1 6232   3.497   4.859   2.907  1.3471  1.2778  2.0234
 2018SOL    HW2 6233   3.516   4.736   3.013  1.5158 -0.4495  0.0660
 2019SOL     OW 6234   8.378   6.005   5.829  0.0568  0.1851 -0.3940
 2019SOL    HW1 6235   8.355   6.102   5.821 -0.8238 -0.0069 -0.2611
 2019SOL    HW2 6236   8.344   5.970   5.916 -2.0358 -0.8796 -1.5891
 2020SOL     OW 6237   7.275   4.175   4.952  0.4150  0.7987 -0.3917
 2020SOL    HW1 6238   7.224   4.110   4.895 -0.8054  0.8063  0.6519
 2020SOL    HW2 6239   7.234   4.178   5.043  0.4282  3.0602 -0.4138
 2021SOL     OW 6240   6.113   7.560   6.063  0.0600  0.3066 -0.0269
 2021SOL    HW1 6241   6.018   7.535   6.084  0.6179 -1.2979  0.6871
 2021SOL    HW2 6242   6.149   7.618   6.135  0.6072 -1.7008  1.3892
 2022SOL     OW 6243   8.447   2.196   3.741 -0.5480 -0.6275  0.1695
 2022SOL    HW1 6244   8.375   2.178   3.674 -1.0114 -1.4020  0.8512
 2022SOL    HW2 6245   8.409   2.192   3.833 -0.0127  0.8643  0.4920
 2023SOL     OW 6246   2.904   0.777   6.767  0.1430 -0.6792  0.1235
 2023SOL    HW1 6247   2.920   0.771   6.669  1.1024 -0.9091  0.2885
 2023SOL    HW2 6248   2.868   0.867   6.790  0.2604 -0.5025 -0.3886
 2024SOL     OW 6249   3.915   1.811   2.134  0.4319  0.0309  0.0534
 2024SOL    HW1 6250   3.887   1.741   2.200 -0.3873  0.2872 -0.0137
 2024SOL    HW2 6251   3.980   1.874   2.178  0.9849 -0.6234  0.1850
 2025SOL     OW 6252   7.384   1.099   3.308  0.0627 -0.1999  0.3098
 2025SOL    HW1 6253   7.460   1.131   3.364 -0.4116  0.5516  0.5435
 2025SOL    HW2 6254   7.384   0.999   3.307  0.9539 -0.2098  0.4304
 2026SOL     OW 6255   1.984   7.059   1.907 -0.1145  0.1787 -0.0018
 2026SOL    HW1 6256   1.944   7.059   1.815 -0.6781  0.1709  0.2366
 2026SOL    HW2 6257   1.943   7.134   1.960 -0.4613 -0.3784  0.5253
 2027SOL     OW 6258   2.657   0.636   6.508  0.5334 -0.1656 -0.5840
 2027SOL    HW1 6259   2.715   0.716   6.497  0.5622 -0.2547 -1.1417
 2027SOL    HW2 6260   2.684   0.566   6.442 -1.5525  0.6089 -2.4243
 2028SOL     OW 6261   6.527   2.812   7.898 -0.1551 -0.3766  0.7107
 2028SOL    HW1 6262   6.515   2.733   7.957  0.9552  0.2008  1.7534
 2028SOL    HW2 6263   6.518   2.896   7.952 -0.3524  0.2013 -0.1904
 2029SOL     OW 6264   4.526   2.397   7.826  0.1362 -0.3867  0.7293
 2029SOL    HW1 6265   4.604   2.360   7.877  0.3537 -0.2491  0.4960
 2029SOL    HW2 6266   4.552   2.413   7.731 -0.3214 -0.8049  0.5276
 2030SOL     OW 6267   5.117   3.797   0.198 -0.0844 -0.1598  0.4916
 2030SOL    HW1 6268   5.213   3.800   0.227 -0.2378 -0.4888  1.0436
 2030SOL    HW2 6269   5.110   3.747   0.112  0.4557  1.3628 -0.4945
 2031SOL     OW 6270   6.989   6.216   3.702  0.4608 -0.0588 -0.1932
 2031SOL    HW1 6271   6.971   6.277   3.779  0.8317 -0.7386  0.4461
 2031SOL    HW2 6272   7.066   6.252   3.649 -0.5790  1.0686 -0.9863
 2032SOL     OW 6273   7.351   6.272   0.363 -0.1438  0.2587  0.0959
 2032SOL    HW1 6274   7.387   6.316   0.445 -1.1400  0.0869  0.6313
 2032SOL    HW2 6275   7.327   6.177   0.382 -0.1461  0.1394 -0.4612
 2033SOL     OW 6276   7.344   0.843   5.305  0.3255 -0.2224 -0.1095
 2033SOL    HW1 6277   7.303   0.752   5.310 -2.2670  0.8619 -0.0149
 2033SOL    HW2 6278   7.353   0.881   5.397 -1.2293  0.6595 -0.2899
 2034SOL     OW 6279   8.245   5.751   5.753  0.2138 -0.5055 -0.2811
 2034SOL    HW1 6280   8.241   5.686   5.829  0.8208  0.0508  0.2337
 2034SOL    HW2 6281   8.316   5.819   5.771 -1.8975  1.7126  0.3561
 2035SOL     OW 6282   7.300   1.725   2.194 -0.4709  0.0156 -0.3618
 2035SOL    HW1 6283   7.249   1.643   2.221 -0.7966 -0.0807 -1.2212
 2035SOL    HW2 6284   7.350   1.761   2.272  1.6417 -2.4196 -0.4494
 2036SOL     OW 6285   0.229   3.668   0.799 -0.7166 -0.4745  0.2693
 2036SOL    HW1 6286   0.133   3.666   0.826 -0.9805 -0.5312 -0.6283
 2036SOL    HW2 6287   0.287   3.661   0.880 -1.4727 -1.5631  0.7378
 2037SOL     OW 6288   1.134   1.038   7.474 -0.2103  0.1119 -0.1363
 2037SOL    HW1 6289   1.181   1.018   7.388 -0.4242 -1.7446  0.1288
 2037SOL    HW2 6290   1.186   1.107   7.525  0.9603 -0.1786 -0.8845
 2038SOL     OW 6291   1.551   1.208   6.561 -0.0229  0.2611 -0.6243
 2038SOL    HW1 6292   1.563   1.232   6.658 -2.2237 -1.5853  0.2308
 2038SOL    HW2 6293   1.639   1.184   6.521  0.9599  1.2009  0.8876
 2039SOL     OW 6294   1.738   1.287   5.830  0.3064  0.0152 -0.6174
 2039SOL    HW1 6295   1.759   1.365   5.890  2.3768 -0.4884 -0.5868
 2039SOL    HW2 6296   1.662   1.310   5.771  0.9103  2.1235 -0.6591
 2040SOL     OW 6297   8.859   5.905   6.434 -0.2026  0.2058  0.3431
 2040SOL    HW1 6298   8.892   5.977   6.495 -0.3770  0.5443  0.0414
 2040SOL    HW2 6299   8.807   5.838   6.487 -2.3703  1.7280  0.2328
 2041SOL     OW 6300   1.415   7.729   0.159  0.1281 -0.0682  0.5993
 2041SOL    HW1 6301   1.513   7.728   0.142 -0.0997 -1.2209 -0.9056
 2041SOL    HW2 6302   1.371   7.655   0.107 -1.5391  0.4303  1.2137
 2042SOL     OW 6303   7.060   7.402   0.607  0.4953  0.1628  0.2999
 2042SOL    HW1 6304   6.970   7.397   0.651  0.7918 -1.8923  0.7627
 2042SOL    HW2 6305   7.057   7.350   0.521  1.4394 -0.6426  0.7366
 2043SOL     OW 6306   8.189   5.242   1.837 -0.2613 -0.4498 -0.3698
 2043SOL    HW1 6307   8.182   5.341   1.829 -1.6226 -0.5010 -0.0465
 2043SOL    HW2 6308   8.160   5.213   1.928 -2.1951 -1.3228 -1.2213
 2044SOL     OW 6309   5.966   1.487   2.458 -0.2950 -0.1827  0.1409
 2044SOL    HW1 6310   5.924   1.459   2.372  1.7266  1.3248 -1.4209
 2044SOL    HW2 6311   6.064   1.466   2.456  0.0629  1.1554  1.4908
 2045SOL     OW 6312   5.764   6.625   8.556  0.2110  0.4932  0.4017
 2045SOL    HW1 6313   5.862   6.648   8.553  0.1246  1.3202  2.2792
 2045SOL    HW2 6314   5.734   6.595   8.465  1.7270  2.2510 -0.7655
 2046SOL     OW 6315   1.173   0.929   4.893 -0.4603 -0.7253  0.1023
 2046SOL    HW1 6316   1.229   0.949   4.973 -0.1584 -0.7117 -0.1083
 2046SOL    HW2 6317   1.222   0.865   4.833 -0.4013 -0.2276 -0.3880
 2047SOL     OW 6318   6.329   8.205   4.220 -0.1738 -0.1545 -0.0576
 2047SOL    HW1 6319   6.368   8.237   4.306  0.5278  0.5383 -0.6240
 2047SOL    HW2 6320   6.372   8.119   4.195 -0.9554 -0.7852  0.6745
 2048SOL     OW 6321   5.262   5.586   4.288  0.4001  0.8876 -0.1019
 2048SOL    HW1 6322   5.235   5.521   4.359  1.3860 -2.1194 -2.2416
 2048SOL    HW2 6323   5.186   5.646   4.266 -1.6578 -1.4970  0.0398
 2049SOL     OW 6324   4.203   1.738   5.345 -0.2467  0.1799 -0.1160
 2049SOL    HW1 6325   4.199   1.649   5.298 -1.8658  0.8202 -1.3067
 2049SOL    HW2 6326   4.164   1.808   5.286  0.0929  1.5203  1.1980
 2050SOL     OW 6327   5.513   1.210   3.941  0.4465  0.4933  0.1121
 2050SOL    HW1 6328   5.559   1.140   3.995 -0.8896  0.6752  1.5575
 2050SOL    HW2 6329   5.578   1.252   3.878  1.4452 -1.5092 -0.2640
 2051SOL     OW 6330   1.957   5.492   8.666  0.1293 -0.1863 -0.2702
 2051SOL    HW1 6331   2.042   5.454   8.630  1.5829  1.2766  1.3936
 2051SOL    HW2 6332   1.943   5.460   8.760 -0.1357  1.0360  0.1354
 2052SOL     OW 6333   5.687   0.615   2.480 -0.7912  0.3170 -0.0812
 2052SOL    HW1 6334   5.624   0.617   2.557 -0.5827 -0.0442  0.1023
 2052SOL    HW2 6335   5.766   0.557   2.503 -0.7206  0.2223 -0.5556
 2053SOL     OW 6336   5.003   6.266   1.809  0.2889 -0.1268  0.9265
 2053SOL    HW1 6337   4.926   6.330   1.811  1.2168  1.0252  1.4029
 2053SOL    HW2 6338   5.022   6.239   1.715 -0.9923 -0.8068  0.8501
 2054SOL     OW 6339   5.763   6.529   0.449  0.3148 -0.6796  0.1568
 2054SOL    HW1 6340   5.843   6.585   0.425  0.9563 -1.5777  0.1309
 2054SOL    HW2 6341   5.687   6.589   0.473  0.5986  0.2130 -1.0534
 2055SOL     OW 6342   8.247   6.975   4.958 -0.2783  0.6109  0.2997
 2055SOL    HW1 6343   8.224   7.059   4.908  0.1608  0.1878 -0.6175
 2055SOL    HW2 6344   8.217   6.896   4.906  1.4296  0.1093  0.0278
 2056SOL     OW 6345   2.608   4.916   7.257 -0.5264  0.1249 -0.4215
 2056SOL    HW1 6346   2.669   4.918   7.178 -1.3005 -1.0787 -1.0929
 2056SOL    HW2 6347   2.650   4.965   7.334  1.4380 -0.9726 -0.7249
 2057SOL     OW 6348   7.824   4.929   6.925 -0.0953 -0.0807 -0.1409
 2057SOL    HW1 6349   7.760   5.000   6.896  1.8381  1.7005 -0.2957
 2057SOL    HW2 6350   7.886   4.966   6.994 -0.0374 -2.1398  1.0028
 2058SOL     OW 6351   6.669   3.921   0.662  0.6543  0.4633 -0.5838
 2058SOL    HW1 6352   6.647   3.865   0.742  0.4587 -0.2106 -1.1045
 2058SOL    HW2 6353   6.639   4.015   0.678  1.6946  0.6284  0.6276
 2059SOL     OW 6354   8.839   4.508   4.023  0.1923  0.1260  0.0456
 2059SOL    HW1 6355   8.796   4.462   3.946 -0.4275  0.1854  0.3567
 2059SOL    HW2 6356   8.938   4.492   4.020  0.1894  0.2450 -0.8390
 2060SOL     OW 6357   4.791   8.241   7.250 -0.0509 -0.2330 -0.4824
 2060SOL    HW1 6358   4.890   8.243   7.239 -0.2505  0.6913 -2.5605
 2060SOL    HW2 6359   4.747   8.264   7.163 -2.0778  1.2788  0.8369
 2061SOL     OW 6360   4.841   5.460   8.238  0.3328 -0.3031 -0.1156
 2061SOL    HW1 6361   4.927   5.435   8.193 -0.3509 -0.7752 -1.2017
 2061SOL    HW2 6362   4.860   5.496   8.329  1.6789 -0.3948 -0.3447
 2062SOL     OW 6363   1.707   5.952   4.559  0.1129  0.0252 -0.1683
 2062SOL    HW1 6364   1.700   6.009   4.477  1.5338 -0.1326 -0.4296
 2062SOL    HW2 6365   1.711   6.010   4.640 -1.5600  0.1755 -0.1547
 2063SOL     OW 6366   3.323   1.462   5.863  0.2863 -0.0517 -0.3449
 2063SOL    HW1 6367   3.417   1.449   5.896 -0.8319 -4.3683  1.7955
 2063SOL    HW2 6368   3.278   1.532   5.918  1.3847 -0.0980  0.6501
 2064SOL     OW 6369   6.013   6.017   1.516 -0.4672  0.6856  0.3219
 2064SOL    HW1 6370   6.038   6.031   1.612 -2.7603  1.2616  0.9013
 2064SOL    HW2 6371   6.096   5.998   1.462  0.8316 -0.1379  2.4612
 2065SOL     OW 6372   6.573   3.926   3.369 -0.2063 -0.4670  0.1521
 2065SOL    HW1 6373   6.606   4.020   3.375 -0.2522 -0.5109  1.2964
 2065SOL    HW2 6374   6.488   3.924   3.316  0.0229  0.0604 -0.2503
 2066SOL     OW 6375   6.327   2.500   3.666  0.4254  0.0208 -0.2882
 2066SOL    HW1 6376   6.252   2.447   3.626  0.1767  0.8605 -0.9739
 2066SOL    HW2 6377   6.394   2.438   3.707 -0.3805 -0.7606 -0.1379
 2067SOL     OW 6378   4.746   0.216   4.222 -0.7233  0.1422  0.3491
 2067SOL    HW1 6379   4.736   0.296   4.282 -0.8635  0.6474 -0.3348
 2067SOL    HW2 6380   4.733   0.244   4.127 -1.9473 -0.9099  0.1838
 2068SOL     OW 6381   6.720   7.368   2.908  0.4535 -0.0218 -0.3646
 2068SOL    HW1 6382   6.685   7.290   2.961 -1.6858  0.8404 -0.4333
 2068SOL    HW2 6383   6.737   7.340   2.814  0.3858 -0.5829 -0.2122
 2069SOL     OW 6384   4.730   4.716   3.617  0.4491  0.6212  0.4113
 2069SOL    HW1 6385   4.631   4.707   3.616  0.3713  1.0037  1.8364
 2069SOL    HW2 6386   4.754   4.808   3.648  1.2295 -0.2727  2.6733
 2070SOL     OW 6387   6.282   0.566   8.400  0.5515  0.0924  0.2610
 2070SOL    HW1 6388   6.372   0.538   8.365  0.4398 -1.0448  0.8355
 2070SOL    HW2 6389   6.276   0.543   8.497 -0.6508 -0.5871  0.0411
 2071SOL     OW 6390   4.786   3.910   1.806  0.5290  0.4158  0.0194
 2071SOL    HW1 6391   4.822   3.895   1.713  0.7333 -0.2981  0.2071
 2071SOL    HW2 6392   4.759   4.006   1.816  0.7612  0.5635 -0.6901
 2072SOL     OW 6393   7.872   8.781   5.900  0.4417  0.3653 -0.1814
 2072SOL    HW1 6394   7.897   8.873   5.931  0.2835  0.0727  0.8451
 2072SOL    HW2 6395   7.822   8.788   5.814  2.2319  1.1041 -1.2239
 2073SOL     OW 6396   7.519   7.185   4.243 -0.5009 -0.5672  0.3068
 2073SOL    HW1 6397   7.512   7.090   4.215 -1.1280 -0.2651 -0.6121
 2073SOL    HW2 6398   7.576   7.235   4.178  1.1332 -0.6240  1.6426
 2074SOL     OW 6399   1.428   8.365   4.398  0.0081 -0.2679  0.3031
 2074SOL    HW1 6400   1.403   8.288   4.339 -0.1069  1.2099 -1.6733
 2074SOL    HW2 6401   1.381   8.357   4.485 -3.9373 -0.0032 -1.5668
 2075SOL     OW 6402   0.461   2.177   6.208  0.1934 -0.6702 -0.1414
 2075SOL    HW1 6403   0.516   2.189   6.291  0.0873  0.7780 -0.2548
 2075SOL    HW2 6404   0.497   2.235   6.135 -1.0993 -0.1619 -0.4045
 2076SOL     OW 6405   7.314   6.019   4.470 -0.3942  0.1100 -0.6790
 2076SOL    HW1 6406   7.357   6.065   4.548 -0.6600  0.4592 -0.7383
 2076SOL    HW2 6407   7.216   6.007   4.488 -0.3429 -0.3581 -0.6996
 2077SOL     OW 6408   7.621   3.258   2.440  0.2080 -0.4044  0.4912
 2077SOL    HW1 6409   7.570   3.344   2.438 -1.7222 -1.4440  1.4498
 2077SOL    HW2 6410   7.658   3.243   2.532 -0.7001 -1.2466  0.7369
 2078SOL     OW 6411   2.674   7.705   5.693  0.3133 -0.5073 -0.2930
 2078SOL    HW1 6412   2.719   7.716   5.605 -3.2291 -0.3692 -2.2834
 2078SOL    HW2 6413   2.647   7.794   5.729  1.4181 -0.5908  0.8032
 2079SOL     OW 6414   7.442   0.412   3.750 -0.2972  0.2551 -0.5151
 2079SOL    HW1 6415   7.415   0.372   3.662 -1.3999 -3.3448  1.2943
 2079SOL    HW2 6416   7.505   0.351   3.797 -0.0438  1.9077  1.4175
 2080SOL     OW 6417   7.257   0.960   4.028 -0.1747  0.7051 -0.0793
 2080SOL    HW1 6418   7.177   1.006   3.990  0.5663  1.7153 -0.4612
 2080SOL    HW2 6419   7.297   1.017   4.100 -0.2868 -0.1895  0.7130
 2081SOL     OW 6420   6.518   8.016   1.454 -0.1853 -0.1434  0.0924
 2081SOL    HW1 6421   6.465   8.096   1.427  1.5356  1.0456  0.0806
 2081SOL    HW2 6422   6.537   7.960   1.373 -1.8386 -0.8906  0.1811
 2082SOL     OW 6423   5.293   0.424   0.517 -0.3646 -1.0145  0.1194
 2082SOL    HW1 6424   5.383   0.383   0.500  0.9831  1.9696 -0.5149
 2082SOL    HW2 6425   5.234   0.407   0.438  0.0843 -1.8154 -0.0608
 2083SOL     OW 6426   7.735   6.797   6.429 -0.0322 -0.5083 -0.0243
 2083SOL    HW1 6427   7.748   6.870   6.496 -0.0144 -0.1781 -0.3845
 2083SOL    HW2 6428   7.772   6.711   6.466  0.5209 -0.2031  0.1499
 2084SOL     OW 6429   6.938   3.108   6.886  0.0601  0.2894  0.2290
 2084SOL    HW1 6430   7.012   3.147   6.832  0.1673 -0.3525 -0.1019
 2084SOL    HW2 6431   6.914   3.018   6.850 -1.0844  0.6038  0.1449
 2085SOL     OW 6432   8.743   8.489   2.762 -0.0756 -0.2890  0.1686
 2085SOL    HW1 6433   8.682   8.535   2.697 -0.6413 -1.2922 -0.0196
 2085SOL    HW2 6434   8.710   8.397   2.780  0.4007 -0.2252  1.4583
 2086SOL     OW 6435   3.158   1.447   5.086  0.2181  0.3719  0.5455
 2086SOL    HW1 6436   3.078   1.470   5.141 -1.3996 -1.3154 -0.9332
 2086SOL    HW2 6437   3.218   1.387   5.138  0.3434  1.3274  1.5316
 2087SOL     OW 6438   7.154   4.886   8.582 -0.1873  0.5472  0.6921
 2087SOL    HW1 6439   7.157   4.887   8.482 -0.6209  1.1147  0.6765
 2087SOL    HW2 6440   7.060   4.905   8.613 -0.1258  0.0470  1.2039
 2088SOL     OW 6441   8.737   0.011   4.373 -0.1606  0.5767 -0.2185
 2088SOL    HW1 6442   8.741  -0.003   4.472 -0.8781 -0.1439 -0.2900
 2088SOL    HW2 6443   8.652   0.058   4.349 -0.9712 -1.0743 -0.6962
 2089SOL     OW 6444   0.377   8.058   3.285 -0.1302 -0.3864  0.0378
 2089SOL    HW1 6445   0.434   8.081   3.206  1.4802  1.0485  1.5393
 2089SOL    HW2 6446   0.432   8.010   3.354 -0.6094  1.2626  1.6487
 2090SOL     OW 6447   2.001   2.698   7.931  0.3711  0.8804  0.2651
 2090SOL    HW1 6448   1.974   2.709   8.027  1.4561 -1.3114  0.8890
 2090SOL    HW2 6449   2.100   2.682   7.926  0.2208  0.2666 -1.1409
 2091SOL     OW 6450   0.110   7.712   5.567  0.2612 -0.5648  0.3196
 2091SOL    HW1 6451   0.156   7.754   5.489  0.8123  2.0236  1.9472
 2091SOL    HW2 6452   0.015   7.743   5.570  0.0941 -1.0734  0.4022
 2092SOL     OW 6453   7.369   7.764   5.243  0.5649 -0.4650  0.0649
 2092SOL    HW1 6454   7.282   7.748   5.197  1.0032 -1.6305 -0.4019
 2092SOL    HW2 6455   7.371   7.857   5.279 -0.3507  0.0073 -1.0377
 2093SOL     OW 6456   3.013   5.835   2.713 -0.1225 -0.2941  0.2582
 2093SOL    HW1 6457   3.071   5.754   2.719  0.6141  0.3056  1.6651
 2093SOL    HW2 6458   3.037   5.899   2.786 -1.3268  0.7863 -0.2504
 2094SOL     OW 6459   1.575   1.306   7.269 -0.4608  1.0902  0.4369
 2094SOL    HW1 6460   1.547   1.332   7.176 -1.4064 -1.1888  0.0034
 2094SOL    HW2 6461   1.664   1.346   7.290 -0.0156  1.2977 -1.6427
 2095SOL     OW 6462   5.310   5.452   2.926  0.5742  0.2884  0.1324
 2095SOL    HW1 6463   5.322   5.474   2.829  2.2014 -1.0731 -0.0071
 2095SOL    HW2 6464   5.294   5.354   2.936 -2.2957  0.7397  1.0726
 2096SOL     OW 6465   5.742   1.432   4.320 -0.2187  0.1720  0.3044
 2096SOL    HW1 6466   5.721   1.472   4.230 -0.5603 -2.8211 -1.0725
 2096SOL    HW2 6467   5.818   1.481   4.361  1.3095  0.4416 -2.5727
 2097SOL     OW 6468   2.066   5.708   2.437 -0.1151 -0.0239  0.4055
 2097SOL    HW1 6469   2.121   5.665   2.509 -1.1673 -0.6608  0.8433
 2097SOL    HW2 6470   2.090   5.667   2.348  1.5408  1.1072  0.2898
 2098SOL     OW 6471   1.985   6.604   1.660  0.0412 -0.4707 -0.2050
 2098SOL    HW1 6472   2.052   6.604   1.735  0.0029  0.7682 -0.1456
 2098SOL    HW2 6473   1.894   6.623   1.696  0.1482  1.0072 -0.6294
 2099SOL     OW 6474   3.927   7.971   7.352 -0.0307  0.3490 -0.4036
 2099SOL    HW1 6475   3.836   7.957   7.314 -0.0724  0.8597 -0.4980
 2099SOL    HW2 6476   3.968   7.882   7.375 -1.5859  0.1744  2.1086
 2100SOL     OW 6477   8.534   5.055   7.242  0.1688  0.6125 -0.7045
 2100SOL    HW1 6478   8.591   4.986   7.198  0.0823 -0.6503  1.0912
 2100SOL    HW2 6479   8.462   5.011   7.295 -0.0520  2.0892  0.2920
 2101SOL     OW 6480   5.064   4.199   4.825 -0.2777  0.0576  0.7320
 2101SOL    HW1 6481   5.028   4.189   4.918 -0.7515 -0.2923  0.5179
 2101SOL    HW2 6482   5.138   4.133   4.811 -0.3690 -0.0549  0.7812
 2102SOL     OW 6483   5.776   2.910   6.557  0.0578 -0.6606 -0.1305
 2102SOL    HW1 6484   5.737   2.819   6.542  0.5287 -0.7253 -1.0591
 2102SOL    HW2 6485   5.738   2.950   6.640 -1.4831 -0.9795 -0.6615
 2103SOL     OW 6486   1.583   8.845   3.512 -0.2030 -0.1157 -0.0485
 2103SOL    HW1 6487   1.615   8.762   3.558  0.3958  0.3428  0.3709
 2103SOL    HW2 6488   1.660   8.890   3.467 -0.7436 -0.4476 -1.3420
 2104SOL     OW 6489   6.132   1.595   1.402  0.1327  0.9880 -0.5538
 2104SOL    HW1 6490   6.144   1.572   1.305 -1.3391  0.6791 -0.6796
 2104SOL    HW2 6491   6.198   1.543   1.457 -0.4593 -0.4992 -1.2031
 2105SOL     OW 6492   0.385   8.513   0.467  0.2940  0.0845 -0.0523
 2105SOL    HW1 6493   0.460   8.494   0.403  0.4900  2.9302 -0.7707
 2105SOL    HW2 6494   0.340   8.598   0.442 -1.5480 -0.2234  1.9248
 2106SOL     OW 6495   5.398   5.897   1.979 -0.8822 -0.1064  0.1684
 2106SOL    HW1 6496   5.353   5.813   1.947 -1.7780  0.5540 -0.3657
 2106SOL    HW2 6497   5.485   5.874   2.021 -0.7938 -1.2469 -0.5822
 2107SOL     OW 6498   1.929   5.100   3.483 -0.5210 -0.1400  0.2485
 2107SOL    HW1 6499   1.933   5.139   3.391  0.6144 -1.4958 -0.3027
 2107SOL    HW2 6500   1.840   5.057   3.497 -1.7464  2.3602  0.8066
 2108SOL     OW 6501   5.489   7.637   0.550  0.2966 -0.3368  0.3089
 2108SOL    HW1 6502   5.391   7.637   0.529  0.2753  3.4148 -0.2831
 2108SOL    HW2 6503   5.541   7.632   0.465  0.5673 -0.3011  0.4742
 2109SOL     OW 6504   3.169   8.176   7.416  0.1995  0.2064  0.1689
 2109SOL    HW1 6505   3.203   8.157   7.508  0.9396 -0.6465 -0.2634
 2109SOL    HW2 6506   3.229   8.243   7.372  1.8236 -1.7852 -0.8330
 2110SOL     OW 6507   2.052   3.688   3.709  0.3551 -0.5839  0.2720
 2110SOL    HW1 6508   1.977   3.737   3.753  0.3463 -0.8458  0.5456
 2110SOL    HW2 6509   2.016   3.610   3.658  0.2396  0.2976 -1.0696
 2111SOL     OW 6510   3.586   1.084   8.046  0.1366 -0.2393 -0.4349
 2111SOL    HW1 6511   3.639   1.002   8.025 -0.6421 -0.5613 -1.2243
 2111SOL    HW2 6512   3.493   1.074   8.009  0.1997  1.2235 -1.0575
 2112SOL     OW 6513   4.778   6.329   7.531 -0.1285 -0.0239 -0.3831
 2112SOL    HW1 6514   4.731   6.243   7.553 -0.6710  0.1491 -0.8394
 2112SOL    HW2 6515   4.836   6.356   7.608 -0.5573 -0.3999  0.0799
 2113SOL     OW 6516   6.268   6.524   5.245 -0.1897 -0.1577  0.3262
 2113SOL    HW1 6517   6.221   6.528   5.334  1.0480  1.3126  0.9778
 2113SOL    HW2 6518   6.334   6.449   5.245  1.6463  1.3277  1.7148
 2114SOL     OW 6519   0.014   6.343   8.785 -0.6818 -0.4397  0.2569
 2114SOL    HW1 6520   0.072   6.338   8.867 -1.0236 -0.1082  0.5214
 2114SOL    HW2 6521   0.003   6.251   8.747 -0.5364 -0.5995  0.5951
 2115SOL     OW 6522   1.240   4.208   2.015 -0.5580 -0.3199  0.2495
 2115SOL    HW1 6523   1.312   4.150   2.053 -1.9655 -1.1974  1.6527
 2115SOL    HW2 6524   1.174   4.152   1.966  0.2112  0.5968 -1.9765
 2116SOL     OW 6525   4.448   1.562   3.987 -0.2876 -0.6425  0.3183
 2116SOL    HW1 6526   4.541   1.590   4.008  0.1840 -0.1348 -2.1493
 2116SOL    HW2 6527   4.386   1.593   4.060  1.2085  0.4606  1.1712
 2117SOL     OW 6528   3.052   1.336   0.223 -0.1583  0.2173 -0.6378
 2117SOL    HW1 6529   2.999   1.393   0.285 -0.5764 -0.2138 -0.5888
 2117SOL    HW2 6530   3.020   1.350   0.129 -1.5693 -1.3150 -0.4267
 2118SOL     OW 6531   6.897   0.333   2.949  0.4004  0.0935  0.2265
 2118SOL    HW1 6532   6.855   0.414   2.990  0.4593 -0.3194  1.1376
 2118SOL    HW2 6533   6.826   0.277   2.907  0.4201  0.8541 -0.8556
 2119SOL     OW 6534   4.912   0.437   7.771 -0.0884 -0.0047  0.6314
 2119SOL    HW1 6535   4.867   0.369   7.713 -1.8691  0.7366  1.0832
 2119SOL    HW2 6536   4.961   0.503   7.714 -0.7088 -0.0428  0.0487
 2120SOL     OW 6537   6.764   5.520   1.565 -0.1748 -0.1562 -0.1248
 2120SOL    HW1 6538   6.831   5.497   1.636  0.6475  0.2874 -0.7357
 2120SOL    HW2 6539   6.812   5.549   1.482 -1.0892 -1.5402 -1.1888
 2121SOL     OW 6540   0.696   5.417   6.011  0.0079 -0.5577  0.5494
 2121SOL    HW1 6541   0.624   5.444   5.948 -1.4449 -0.9949  1.9512
 2121SOL    HW2 6542   0.679   5.459   6.101  1.0885 -1.2594  1.1047
 2122SOL     OW 6543   5.215   0.407   2.159 -0.0783 -0.1656  0.1954
 2122SOL    HW1 6544   5.208   0.470   2.082 -1.9128 -2.7288 -1.9250
 2122SOL    HW2 6545   5.296   0.428   2.212  0.1315  3.0402 -1.1663
 2123SOL     OW 6546   6.417   0.970   6.638 -0.1155  0.5749 -0.3377
 2123SOL    HW1 6547   6.458   0.953   6.548  2.9815  1.2318  0.8139
 2123SOL    HW2 6548   6.390   0.883   6.679  0.0920  0.0872 -1.2076
 2124SOL     OW 6549   1.426   1.950   0.754 -0.2782 -0.0869  0.2592
 2124SOL    HW1 6550   1.430   1.884   0.679  0.3096 -1.2316  1.2587
 2124SOL    HW2 6551   1.339   1.941   0.801  0.1471 -0.7914  0.9355
 2125SOL     OW 6552   6.602   0.551   8.529  0.2349 -0.3174  0.0007
 2125SOL    HW1 6553   6.631   0.647   8.526  0.8667 -0.5181 -2.0250
 2125SOL    HW2 6554   6.614   0.515   8.621  0.9099  1.2764  0.5638
 2126SOL     OW 6555   4.145   5.490   8.411 -0.4321  0.4766 -0.4004
 2126SOL    HW1 6556   4.084   5.429   8.361  0.3448 -0.8196  0.1704
 2126SOL    HW2 6557   4.238   5.479   8.377  0.5403 -2.0681  2.5805
 2127SOL     OW 6558   2.340   2.584   6.274 -0.2816  0.2892 -0.2512
 2127SOL    HW1 6559   2.421   2.542   6.314 -0.9968 -0.3055  0.6270
 2127SOL    HW2 6560   2.258   2.544   6.316 -1.1353 -1.2861 -3.1751
 2128SOL     OW 6561   8.533   4.388   0.278  0.4207  0.5665  0.1591
 2128SOL    HW1 6562   8.531   4.453   0.203 -1.9440 -0.1061 -0.4597
 2128SOL    HW2 6563   8.610   4.325   0.266  0.4216  0.8268 -1.3944
 2129SOL     OW 6564   8.805   6.182   1.591 -0.6075 -0.2268 -0.2956
 2129SOL    HW1 6565   8.882   6.162   1.530 -2.5474 -1.5232 -2.4596
 2129SOL    HW2 6566   8.792   6.105   1.654  0.4777  0.4776  0.8512
 2130SOL     OW 6567   5.069   5.416   6.790 -0.4633 -0.2768  0.0112
 2130SOL    HW1 6568   5.106   5.447   6.702 -1.4173  1.1762  0.1035
 2130SOL    HW2 6569   5.062   5.493   6.853  1.9074 -1.5710  2.0493
 2131SOL     OW 6570   0.039   1.995   4.852  0.6060 -0.1210 -0.3216
 2131SOL    HW1 6571  -0.001   2.085   4.869  1.5140  0.3017 -0.3944
 2131SOL    HW2 6572   0.057   1.949   4.940  0.2425 -0.1942 -0.2830
 2132SOL     OW 6573   6.726   2.950   5.712  0.4352  0.5283  0.7533
 2132SOL    HW1 6574   6.757   2.862   5.674 -3.0801 -0.9379  0.8871
 2132SOL    HW2 6575   6.776   2.969   5.797  0.8074 -1.7619  1.1218
 2133SOL     OW 6576   7.748   3.229   4.884  0.1077 -0.2288  0.2949
 2133SOL    HW1 6577   7.691   3.312   4.880  0.8634  0.3710  1.5755
 2133SOL    HW2 6578   7.690   3.149   4.872 -1.1135  0.3437  2.0129
 2134SOL     OW 6579   4.150   3.134   7.955 -0.0885 -0.0355 -0.2007
 2134SOL    HW1 6580   4.104   3.113   8.042 -0.8477  1.4221 -0.2188
 2134SOL    HW2 6581   4.112   3.076   7.883  0.1365 -0.8537  0.3235
 2135SOL     OW 6582   5.564   1.767   4.603 -0.3916  0.0273 -0.1082
 2135SOL    HW1 6583   5.564   1.813   4.514 -2.2504  0.4981  0.1047
 2135SOL    HW2 6584   5.485   1.707   4.610 -2.2619  2.4940  2.4183
 2136SOL     OW 6585   0.272   0.116   5.715  0.2695 -0.7625  0.1446
 2136SOL    HW1 6586   0.204   0.189   5.703  0.8616 -0.3276 -0.6856
 2136SOL    HW2 6587   0.364   0.156   5.715  0.5397 -1.3184  1.4599
 2137SOL     OW 6588   4.702   0.536   0.424 -0.3946 -0.0329  0.1763
 2137SOL    HW1 6589   4.688   0.631   0.453  1.8431  0.3586  0.1703
 2137SOL    HW2 6590   4.738   0.535   0.330  2.4285 -0.6293  1.1613
 2138SOL     OW 6591   7.748   1.941   4.327 -0.2793 -0.5917  0.0424
 2138SOL    HW1 6592   7.731   2.017   4.390 -2.1182 -0.0128 -1.0650
 2138SOL    HW2 6593   7.841   1.907   4.340  0.2335  1.1407  1.3102
 2139SOL     OW 6594   4.413   8.242   7.927 -0.1376  0.2921 -0.2505
 2139SOL    HW1 6595   4.469   8.215   8.005  0.2434 -0.7837 -0.8691
 2139SOL    HW2 6596   4.427   8.177   7.852 -0.4707  1.3096 -1.2265
 2140SOL     OW 6597   0.561   7.648   1.214  0.3893 -0.5374 -0.3950
 2140SOL    HW1 6598   0.522   7.665   1.305  2.0044  0.2089  0.1870
 2140SOL    HW2 6599   0.536   7.556   1.185 -2.2408  0.0599 -0.3137
 2141SOL     OW 6600   7.904   6.546   1.454 -0.4166 -0.0489 -0.4469
 2141SOL    HW1 6601   7.912   6.531   1.356  1.0076 -2.0581 -0.0803
 2141SOL    HW2 6602   7.980   6.501   1.501  0.9455  3.6943  1.3813
 2142SOL     OW 6603   3.777   4.852   3.108  0.1246 -0.1136 -0.1572
 2142SOL    HW1 6604   3.716   4.776   3.084  0.2841 -0.2746 -0.0542
 2142SOL    HW2 6605   3.872   4.819   3.111  0.2462  0.1847 -0.5500
 2143SOL     OW 6606   1.080   4.510   3.355  0.0176  0.6308 -0.0196
 2143SOL    HW1 6607   1.045   4.432   3.406 -2.0099  1.5275  0.0311
 2143SOL    HW2 6608   1.147   4.478   3.288 -1.9739 -1.4032 -1.1604
 2144SOL     OW 6609   2.216   2.595   0.542 -0.0239  0.0466 -0.1373
 2144SOL    HW1 6610   2.170   2.564   0.625  0.3334  0.9982  0.4314
 2144SOL    HW2 6611   2.202   2.693   0.531  0.3793  0.0220 -0.9193
 2145SOL     OW 6612   0.215   8.226   3.409 -0.2097 -0.1916  0.2111
 2145SOL    HW1 6613   0.267   8.157   3.359 -0.4978  0.1620 -0.5878
 2145SOL    HW2 6614   0.270   8.262   3.484  1.5164  1.5974 -1.7760
 2146SOL     OW 6615   4.388   1.225   4.686  0.5038  0.2898 -0.1420
 2146SOL    HW1 6616   4.297   1.184   4.681  0.3050  0.6815  0.1442
 2146SOL    HW2 6617   4.440   1.183   4.760 -0.1128  1.3307  0.9114
 2147SOL     OW 6618   6.103   7.194   0.503  0.6077 -0.3574  0.3952
 2147SOL    HW1 6619   6.004   7.180   0.491  0.1796  0.8592  2.0338
 2147SOL    HW2 6620   6.151   7.163   0.422 -1.2504  0.4394 -1.0861
 2148SOL     OW 6621   1.722   3.165   6.078  0.0616  0.1617 -0.4999
 2148SOL    HW1 6622   1.764   3.255   6.090  0.0096  0.2947 -1.2339
 2148SOL    HW2 6623   1.673   3.163   5.991 -2.5842  0.4441  0.8951
 2149SOL     OW 6624   0.824   3.505   8.657  0.4201  0.1883 -0.5063
 2149SOL    HW1 6625   0.892   3.439   8.625 -0.2867  0.3463 -2.4689
 2149SOL    HW2 6626   0.858   3.598   8.641  0.8169  0.3115  0.9404
 2150SOL     OW 6627   2.476   7.891   7.775  0.4048  0.1052 -0.2295
 2150SOL    HW1 6628   2.540   7.942   7.717  1.1053  0.1598  0.5744
 2150SOL    HW2 6629   2.449   7.807   7.727 -0.4848  1.0368 -1.4109
 2151SOL     OW 6630   2.784   0.954   8.084  0.0227  0.7598  0.3899
 2151SOL    HW1 6631   2.816   0.883   8.020  0.6497 -0.6846  2.2105
 2151SOL    HW2 6632   2.816   1.043   8.053  1.8186 -0.0981 -0.3947
 2152SOL     OW 6633   6.698   0.390   1.358 -0.3579 -0.0506  0.0277
 2152SOL    HW1 6634   6.645   0.306   1.349 -0.1242 -0.1827 -0.0903
 2152SOL    HW2 6635   6.780   0.385   1.302 -1.1681  0.9188 -1.3237
 2153SOL     OW 6636   8.630   1.953   3.105 -0.0790 -0.1739  0.5428
 2153SOL    HW1 6637   8.671   1.866   3.131 -2.2877 -0.8997  1.7467
 2153SOL    HW2 6638   8.665   2.025   3.165  2.7221  0.1405 -1.2311
 2154SOL     OW 6639   2.042   3.599   5.796 -0.1660 -0.4960  0.0152
 2154SOL    HW1 6640   2.053   3.695   5.819  0.9541 -0.3842 -0.8870
 2154SOL    HW2 6641   1.952   3.567   5.826  0.5265  0.0308  3.0035
 2155SOL     OW 6642   7.641   2.313   5.871  0.3954  0.1333  0.1279
 2155SOL    HW1 6643   7.602   2.226   5.842 -0.0801  0.8200 -1.4041
 2155SOL    HW2 6644   7.604   2.337   5.961  0.5857 -1.2572  0.6006
 2156SOL     OW 6645   5.574   3.334   2.086  0.9168 -0.3239 -0.4008
 2156SOL    HW1 6646   5.607   3.257   2.032  0.8845  0.1086 -1.0529
 2156SOL    HW2 6647   5.613   3.419   2.050 -1.0665  0.2339 -1.3710
 2157SOL     OW 6648   2.151   3.057   8.607  0.1179  0.1937  0.5867
 2157SOL    HW1 6649   2.215   3.107   8.665  1.5282 -0.0733 -0.6853
 2157SOL    HW2 6650   2.127   3.113   8.528 -2.1614  0.7422  1.5973
 2158SOL     OW 6651   2.790   3.448   8.313 -0.4830 -0.6469  0.2205
 2158SOL    HW1 6652   2.820   3.408   8.226 -1.0208  0.2126 -0.3665
 2158SOL    HW2 6653   2.833   3.398   8.389  1.7095 -0.0752 -0.5631
 2159SOL     OW 6654   8.491   8.561   5.588  0.0221 -0.7083 -0.0163
 2159SOL    HW1 6655   8.436   8.504   5.527 -0.8823 -0.2645  0.3605
 2159SOL    HW2 6656   8.431   8.611   5.650  0.7546  0.8697 -0.5096
 2160SOL     OW 6657   6.011   7.263   1.966  0.5996 -0.4181  0.1528
 2160SOL    HW1 6658   6.078   7.207   2.014  2.2071  3.2405  2.6812
 2160SOL    HW2 6659   5.934   7.283   2.026 -0.2612 -0.4583 -0.9152
 2161SOL     OW 6660   7.522   4.270   3.759 -0.0725 -0.1965 -0.1081
 2161SOL    HW1 6661   7.449   4.201   3.758 -0.4497  0.0802  2.1173
 2161SOL    HW2 6662   7.606   4.230   3.724 -0.5969 -1.4086 -0.0565
 2162SOL     OW 6663   7.776   5.026   5.216 -0.3024 -0.1846  0.1749
 2162SOL    HW1 6664   7.862   4.978   5.230  0.7001  1.3102 -0.5728
 2162SOL    HW2 6665   7.704   4.983   5.271  0.5106 -2.4945 -0.4513
 2163SOL     OW 6666   6.914   2.205   4.203  0.3786 -0.5987  0.2135
 2163SOL    HW1 6667   6.972   2.285   4.217 -0.2771 -0.0603 -0.0561
 2163SOL    HW2 6668   6.833   2.211   4.262 -1.2578  0.5536 -1.9812
 2164SOL     OW 6669   8.017   4.554   8.319  0.3807  0.2715 -0.2557
 2164SOL    HW1 6670   7.960   4.484   8.276  0.6050  0.2236 -0.4778
 2164SOL    HW2 6671   7.960   4.632   8.345  0.1373  0.0237 -0.0429
 2165SOL     OW 6672   6.137   6.456   6.724  0.1366  0.5631  1.0257
 2165SOL    HW1 6673   6.221   6.402   6.720 -0.7583 -0.9123  1.2299
 2165SOL    HW2 6674   6.106   6.479   6.632  0.3346  0.4257  0.9258
 2166SOL     OW 6675   8.772   4.646   8.227  0.1595 -0.1130  0.1577
 2166SOL    HW1 6676   8.702   4.641   8.298 -0.7230  0.7441 -0.6285
 2166SOL    HW2 6677   8.862   4.629   8.268 -0.5309 -1.8537  1.0731
 2167SOL     OW 6678   4.027   7.777   2.301 -0.0638  0.4554  0.0288
 2167SOL    HW1 6679   4.106   7.802   2.356  0.2805 -0.1793 -0.1629
 2167SOL    HW2 6680   3.947   7.831   2.330 -0.3033 -0.9306  2.2388
 2168SOL     OW 6681   3.605   6.119   4.891 -0.1101  0.1717  0.3037
 2168SOL    HW1 6682   3.586   6.050   4.821 -0.4813  0.2981  0.2744
 2168SOL    HW2 6683   3.564   6.206   4.864 -1.3878 -0.0963  1.2862
 2169SOL     OW 6684   1.208   8.259   7.704  0.2822 -0.0772  0.2728
 2169SOL    HW1 6685   1.273   8.184   7.712  1.1332  0.5847 -0.2290
 2169SOL    HW2 6686   1.180   8.268   7.608  2.4659  2.0540 -0.2729
 2170SOL     OW 6687   6.977   8.356   1.749 -0.6501 -0.3334 -0.6228
 2170SOL    HW1 6688   6.916   8.301   1.807 -1.5586  1.0365 -0.2364
 2170SOL    HW2 6689   6.937   8.446   1.735  1.1759  0.5186 -0.5947
 2171SOL     OW 6690   0.439   8.616   1.781 -0.5696 -0.0317  0.2423
 2171SOL    HW1 6691   0.349   8.577   1.761 -0.1622  0.0420 -2.0304
 2171SOL    HW2 6692   0.510   8.555   1.746  0.2050  0.6785  0.5448
 2172SOL     OW 6693   2.910   8.661   0.127 -0.0731  0.0335 -0.1420
 2172SOL    HW1 6694   2.986   8.611   0.085  1.3111  0.2360  1.9497
 2172SOL    HW2 6695   2.875   8.608   0.204  0.1474  1.3910  0.9223
 2173SOL     OW 6696   3.097   0.733   5.040  0.3522 -0.3970  0.1927
 2173SOL    HW1 6697   3.191   0.742   5.005 -0.1656  0.6985 -0.9747
 2173SOL    HW2 6698   3.093   0.771   5.133  0.8380  0.5854 -0.1681
 2174SOL     OW 6699   6.565   3.463   2.756  0.5827 -0.2287 -0.0195
 2174SOL    HW1 6700   6.512   3.467   2.671  1.0935 -0.1290 -0.3406
 2174SOL    HW2 6701   6.557   3.371   2.795 -0.4888  0.0286  0.3770
 2175SOL     OW 6702   1.281   6.942   1.161 -0.6948  0.4880  0.7965
 2175SOL    HW1 6703   1.370   6.924   1.118 -1.2304 -0.6504  0.0912
 2175SOL    HW2 6704   1.210   6.945   1.090 -1.5764 -1.2399  1.5377
 2176SOL     OW 6705   3.192   4.715   1.443 -0.0156 -0.0767 -0.3633
 2176SOL    HW1 6706   3.106   4.669   1.465  0.8304 -0.8653  1.5299
 2176SOL    HW2 6707   3.221   4.691   1.351 -0.8129 -1.4080 -0.2883
 2177SOL     OW 6708   5.222   7.322   6.499 -0.2262 -0.6881  0.0312
 2177SOL    HW1 6709   5.128   7.289   6.496 -0.0362 -1.4182  1.2358
 2177SOL    HW2 6710   5.243   7.354   6.591  1.2298 -2.1972  0.2724
 2178SOL     OW 6711   3.128   7.755   0.445  0.1043 -0.0866 -0.7308
 2178SOL    HW1 6712   3.115   7.681   0.379 -1.2458 -0.5653  0.0333
 2178SOL    HW2 6713   3.129   7.843   0.397 -0.9076 -0.4270 -1.4013
 2179SOL     OW 6714   3.671   7.773   4.189 -0.5762 -0.4186  0.4108
 2179SOL    HW1 6715   3.761   7.783   4.147 -1.4665 -1.3614 -1.8637
 2179SOL    HW2 6716   3.665   7.685   4.235 -0.7496 -0.9323 -0.5761
 2180SOL     OW 6717   0.433   0.392   4.390 -0.0693 -0.1916 -0.4896
 2180SOL    HW1 6718   0.403   0.382   4.485  0.1893  0.5174 -0.3278
 2180SOL    HW2 6719   0.412   0.484   4.358  0.9170 -0.0373 -0.7300
 2181SOL     OW 6720   7.088   4.825   3.193 -0.1105 -0.1233 -0.2341
 2181SOL    HW1 6721   7.143   4.892   3.143 -1.6652  1.7154  0.3919
 2181SOL    HW2 6722   7.066   4.861   3.283 -1.0283 -1.4794  0.1084
 2182SOL     OW 6723   7.979   7.531   0.045 -0.0480 -0.3710  1.1219
 2182SOL    HW1 6724   7.907   7.469   0.014  0.1647 -0.3300  0.5410
 2182SOL    HW2 6725   8.060   7.477   0.071  1.0164 -0.2539 -1.6626
 2183SOL     OW 6726   8.194   3.387   3.007 -0.3877 -0.2480  0.0065
 2183SOL    HW1 6727   8.212   3.407   3.104  0.2168 -1.9436  0.2759
 2183SOL    HW2 6728   8.280   3.367   2.961 -0.8371 -1.1835 -0.4500
 2184SOL     OW 6729   3.499   3.151   6.646 -0.4550  0.6820 -0.3019
 2184SOL    HW1 6730   3.490   3.245   6.613  0.7007  0.5287 -1.1232
 2184SOL    HW2 6731   3.527   3.092   6.570 -0.5086 -0.2084  0.3573
 2185SOL     OW 6732   6.051   8.332   5.795 -0.2429  0.0416  0.1764
 2185SOL    HW1 6733   6.106   8.249   5.781  0.0208  0.6195 -2.9782
 2185SOL    HW2 6734   5.956   8.307   5.811 -0.4026 -0.9326 -1.9648
 2186SOL     OW 6735   0.526   5.828   4.472  0.0916  0.0774 -0.4277
 2186SOL    HW1 6736   0.451   5.765   4.490  0.9180 -0.2116  2.4769
 2186SOL    HW2 6737   0.526   5.900   4.541  2.1502  0.3844 -0.6992
 2187SOL     OW 6738   4.018   3.290   3.417  0.3679 -0.1161  0.4791
 2187SOL    HW1 6739   3.942   3.352   3.399 -0.0511 -0.9059 -0.6309
 2187SOL    HW2 6740   4.087   3.300   3.345  1.1220  0.2834  1.2409
 2188SOL     OW 6741   1.466   7.880   5.190 -0.3205 -0.1712  0.2165
 2188SOL    HW1 6742   1.397   7.929   5.136  0.1787  0.1682 -0.1250
 2188SOL    HW2 6743   1.557   7.908   5.160  0.0253 -2.3124 -0.9504
 2189SOL     OW 6744   5.647   1.202   6.769 -0.1862  0.2294  0.2120
 2189SOL    HW1 6745   5.632   1.284   6.713 -0.1744  0.4015  0.4560
 2189SOL    HW2 6746   5.745   1.179   6.768 -0.2484 -0.0181 -0.1804
 2190SOL     OW 6747   2.970   6.977   6.304 -0.0508  0.0945 -0.6846
 2190SOL    HW1 6748   2.931   6.906   6.245 -1.2270 -0.4361  0.6452
 2190SOL    HW2 6749   3.069   6.972   6.302 -0.1091 -1.3186 -0.9575
 2191SOL     OW 6750   4.666   1.861   5.474 -0.1998 -0.1532  0.4974
 2191SOL    HW1 6751   4.614   1.932   5.426 -1.2315 -2.3543 -1.8510
 2191SOL    HW2 6752   4.603   1.792   5.509  0.9099 -0.8675  1.1421
 2192SOL     OW 6753   0.189   2.966   3.062  0.1004 -0.0362 -0.1577
 2192SOL    HW1 6754   0.120   3.018   3.010 -1.0145 -1.2869 -0.0016
 2192SOL    HW2 6755   0.270   2.954   3.006  0.9926  3.0191  0.2893
 2193SOL     OW 6756   5.896   0.517   4.975  0.3341 -0.0618 -0.3031
 2193SOL    HW1 6757   5.919   0.458   4.897  0.0629 -0.8027  0.1624
 2193SOL    HW2 6758   5.929   0.474   5.059 -0.0982  0.3331  0.0726
 2194SOL     OW 6759   6.020   8.011   2.421  0.4466 -0.3938  0.2374
 2194SOL    HW1 6760   5.965   8.071   2.479  0.2291 -0.6581  0.3035
 2194SOL    HW2 6761   6.035   8.055   2.332  0.2152 -0.2780  0.2567
 2195SOL     OW 6762   8.351   8.185   5.086  0.2663  1.2437 -0.7431
 2195SOL    HW1 6763   8.328   8.146   4.996 -0.5514  0.5274 -0.2414
 2195SOL    HW2 6764   8.450   8.190   5.096  0.3886 -0.0373 -1.1225
 2196SOL     OW 6765   6.341   2.092   5.561  0.3270  0.7200  0.6296
 2196SOL    HW1 6766   6.378   2.041   5.483  0.0053 -1.0867  1.6152
 2196SOL    HW2 6767   6.398   2.076   5.641 -0.4100  1.0395  1.2226
 2197SOL     OW 6768   6.147   7.573   7.813 -0.2992 -0.3174  0.4153
 2197SOL    HW1 6769   6.113   7.591   7.720  0.0378  0.0374  0.3567
 2197SOL    HW2 6770   6.081   7.609   7.879  0.0344  0.5350  0.3018
 2198SOL     OW 6771   4.369   7.178   6.521 -0.5325 -0.3563  0.8223
 2198SOL    HW1 6772   4.433   7.129   6.580  1.7567 -0.1732 -1.3544
 2198SOL    HW2 6773   4.297   7.115   6.491  0.5649 -1.5438  0.6070
 2199SOL     OW 6774   1.458   0.102   3.741  0.4778  0.8193  0.6246
 2199SOL    HW1 6775   1.479   0.078   3.646  1.5397  1.9986  0.5367
 2199SOL    HW2 6776   1.429   0.020   3.791 -0.7375  0.2900 -0.8668
 2200SOL     OW 6777   6.019   1.454   4.924  0.3516  0.2775 -0.0805
 2200SOL    HW1 6778   5.934   1.439   4.974 -0.1509  0.6683 -0.8000
 2200SOL    HW2 6779   6.018   1.400   4.840  1.5655 -1.0597  0.7178
 2201SOL     OW 6780   8.177   4.688   6.620 -0.6028 -0.0714  0.0971
 2201SOL    HW1 6781   8.100   4.737   6.661  0.4553  0.0469  2.0889
 2201SOL    HW2 6782   8.244   4.755   6.587 -0.7683 -0.1743 -0.4480
 2202SOL     OW 6783   3.481   6.709   2.529 -0.4822 -0.0739  0.3256
 2202SOL    HW1 6784   3.445   6.802   2.529 -1.2401 -0.3474 -0.6231
 2202SOL    HW2 6785   3.444   6.659   2.608 -0.7047  0.1967  0.3939
 2203SOL     OW 6786   1.210   3.617   2.053  0.1055  0.3947  0.0874
 2203SOL    HW1 6787   1.229   3.627   1.955  0.6352 -0.0644  0.1370
 2203SOL    HW2 6788   1.120   3.576   2.065  0.8870 -1.5452 -0.2864
 2204SOL     OW 6789   1.592   2.655   1.599  0.4660  0.0309 -0.1190
 2204SOL    HW1 6790   1.591   2.640   1.500 -0.3530  0.2664 -0.1508
 2204SOL    HW2 6791   1.655   2.730   1.621 -0.0340  0.5804 -0.5495
 2205SOL     OW 6792   2.687   2.034   4.044  0.5610 -0.1524  0.4375
 2205SOL    HW1 6793   2.658   2.070   3.956  2.5292 -1.8619 -0.9998
 2205SOL    HW2 6794   2.617   2.054   4.113 -1.0321  1.2311 -1.4719
 2206SOL     OW 6795   8.785   0.459   7.601 -0.4587  0.4525  0.3913
 2206SOL    HW1 6796   8.788   0.389   7.672  0.4102 -0.9778 -0.9830
 2206SOL    HW2 6797   8.697   0.454   7.553 -0.2078 -0.0661 -0.0288
 2207SOL     OW 6798   5.444   2.068   2.718 -0.6877  0.3119  0.7807
 2207SOL    HW1 6799   5.502   2.147   2.696 -1.6928  0.8633  0.0466
 2207SOL    HW2 6800   5.370   2.098   2.778 -2.3408  0.4448 -1.2088
 2208SOL     OW 6801   5.464   2.834   8.721  1.1774  0.5500 -0.0849
 2208SOL    HW1 6802   5.465   2.769   8.644 -0.2248  0.8500 -0.3790
 2208SOL    HW2 6803   5.369   2.857   8.744  1.5850  0.6471  1.5953
 2209SOL     OW 6804   5.529   3.349   0.442  0.2564  0.3065 -0.1237
 2209SOL    HW1 6805   5.584   3.431   0.454 -0.7667  0.8342  1.2927
 2209SOL    HW2 6806   5.577   3.271   0.481  0.5051  0.5449  0.0523
 2210SOL     OW 6807   0.494   7.031   1.853  0.3661  1.0793  0.3970
 2210SOL    HW1 6808   0.434   6.973   1.907  1.2330 -0.4597 -0.2200
 2210SOL    HW2 6809   0.527   7.107   1.910 -1.5724  1.5691  0.9282
 2211SOL     OW 6810   1.549   8.210   1.597  0.1640  0.0361  0.5153
 2211SOL    HW1 6811   1.506   8.204   1.687 -0.5191 -0.2499  0.1836
 2211SOL    HW2 6812   1.485   8.176   1.527  1.1480 -0.9667  0.0630
 2212SOL     OW 6813   0.860   0.475   1.065 -0.1281 -0.4303 -0.2016
 2212SOL    HW1 6814   0.836   0.396   1.121  1.7468 -1.3696 -0.6466
 2212SOL    HW2 6815   0.939   0.521   1.105 -1.0396  1.1020 -0.0891
 2213SOL     OW 6816   7.254   6.727   2.351  0.1228  0.0269  0.1260
 2213SOL    HW1 6817   7.227   6.815   2.313 -0.7836 -0.1881  0.2531
 2213SOL    HW2 6818   7.194   6.703   2.427  0.3274 -0.7267  0.0609
 2214SOL     OW 6819   8.460   3.145   2.404 -0.0792 -0.3790 -0.1197
 2214SOL    HW1 6820   8.559   3.149   2.418 -0.0268  1.2338 -0.8184
 2214SOL    HW2 6821   8.413   3.173   2.488  0.1448  2.2953 -0.8098
 2215SOL     OW 6822   3.624   6.771   3.186  0.0735 -0.6391  0.3491
 2215SOL    HW1 6823   3.675   6.686   3.171  2.0762  0.7654 -1.3703
 2215SOL    HW2 6824   3.579   6.799   3.101 -3.9589 -1.8933  1.8167
 2216SOL     OW 6825   8.369   8.788   3.301  0.5903  0.2025 -0.2290
 2216SOL    HW1 6826   8.445   8.729   3.326  1.1509  1.5227  1.4127
 2216SOL    HW2 6827   8.308   8.739   3.238  0.8565 -2.2198  1.2475
 2217SOL     OW 6828   7.480   5.370   6.390 -0.0036  0.6799  0.1330
 2217SOL    HW1 6829   7.452   5.274   6.396  1.2395  0.3385  0.7608
 2217SOL    HW2 6830   7.502   5.405   6.481 -2.4814  2.2450  0.2313
 2218SOL     OW 6831   8.516   8.726   4.076  0.1225 -0.1220 -0.1043
 2218SOL    HW1 6832   8.571   8.702   3.996  1.1237  2.0737 -0.1447
 2218SOL    HW2 6833   8.508   8.825   4.082 -0.1600 -0.2406  2.3991
 2219SOL     OW 6834   7.891   1.852   3.466  0.4576 -0.1915 -0.2768
 2219SOL    HW1 6835   7.942   1.808   3.392  1.7089  0.2589  0.2927
 2219SOL    HW2 6836   7.951   1.916   3.514 -0.7382  0.5546  0.2458
 2220SOL     OW 6837   8.670   8.508   8.048 -0.1008  0.2872 -0.2319
 2220SOL    HW1 6838   8.754   8.478   8.095 -2.3318 -1.5972  2.9681
 2220SOL    HW2 6839   8.679   8.605   8.024  2.5687  0.4546  1.0022
 2221SOL     OW 6840   0.472   1.889   1.225  0.3619 -0.6506  0.1763
 2221SOL    HW1 6841   0.422   1.858   1.306 -0.8783 -0.3730 -0.4536
 2221SOL    HW2 6842   0.560   1.926   1.252 -0.1989 -0.1813  1.4492
 2222SOL     OW 6843   1.767   4.452   2.257 -0.7219 -0.0441 -0.8062
 2222SOL    HW1 6844   1.730   4.451   2.164 -0.3825 -1.2173 -0.9432
 2222SOL    HW2 6845   1.703   4.405   2.318 -0.0302 -1.0399 -0.8291
 2223SOL     OW 6846   3.856   0.358   5.998  0.2726 -0.2489  0.1453
 2223SOL    HW1 6847   3.893   0.266   5.986 -0.1247 -0.4053  0.1214
 2223SOL    HW2 6848   3.792   0.359   6.075  0.1521 -0.0309  0.0436
 2224SOL     OW 6849   7.478   4.072   6.483 -0.1954  0.6418  0.3276
 2224SOL    HW1 6850   7.413   4.061   6.408  1.0542 -1.2986 -0.5402
 2224SOL    HW2 6851   7.569   4.092   6.445  0.3119  0.3684  1.3699
 2225SOL     OW 6852   6.619   3.333   8.467 -0.2740  0.1875  0.0512
 2225SOL    HW1 6853   6.642   3.425   8.497  1.3441 -0.1704 -0.0258
 2225SOL    HW2 6854   6.578   3.282   8.544  0.5126  0.3997  0.6217
 2226SOL     OW 6855   8.451   7.234   0.403 -0.2117 -0.5168 -0.5959
 2226SOL    HW1 6856   8.492   7.174   0.472  1.1303  0.0904 -0.8184
 2226SOL    HW2 6857   8.354   7.214   0.394 -0.1526 -1.4358  0.5927
 2227SOL     OW 6858   3.249   5.106   4.350  0.8626 -0.6440 -0.6804
 2227SOL    HW1 6859   3.149   5.105   4.355  0.8756  0.2426  0.0816
 2227SOL    HW2 6860   3.277   5.160   4.270  0.7073  1.1748  0.4173
 2228SOL     OW 6861   4.509   0.043   2.056 -0.5262  0.0397 -0.1086
 2228SOL    HW1 6862   4.609   0.040   2.053 -0.5636 -2.0226 -0.9431
 2228SOL    HW2 6863   4.477   0.001   2.141 -0.6794 -1.3662 -0.8240
 2229SOL     OW 6864   3.380   1.294   0.902  0.0132  0.1007  0.1059
 2229SOL    HW1 6865   3.333   1.321   0.817 -0.8005 -1.8466 -0.1346
 2229SOL    HW2 6866   3.474   1.270   0.881 -0.1783 -0.3546 -0.2682
 2230SOL     OW 6867   2.652   4.534   0.186  0.0619 -0.4388  0.0919
 2230SOL    HW1 6868   2.698   4.521   0.274  0.5678  0.3158 -0.0496
 2230SOL    HW2 6869   2.556   4.557   0.202 -0.3041 -2.0244  0.3888
 2231SOL     OW 6870   0.026   0.053   1.231  0.2983 -0.0826  0.8767
 2231SOL    HW1 6871   0.120   0.080   1.254 -0.4961  3.9470  0.1044
 2231SOL    HW2 6872  -0.038   0.097   1.295 -1.2234  0.6519 -1.0609
 2232SOL     OW 6873   5.788   4.901   6.310  0.0934 -0.3091 -0.0516
 2232SOL    HW1 6874   5.817   4.994   6.333  1.5750 -1.1877  1.9147
 2232SOL    HW2 6875   5.866   4.851   6.270 -0.3428 -1.0610  0.0270
 2233SOL     OW 6876   1.126   7.581   5.784 -0.3153 -0.4233 -0.4417
 2233SOL    HW1 6877   1.144   7.519   5.860 -0.9237 -0.7261 -0.5409
 2233SOL    HW2 6878   1.067   7.655   5.814 -1.0756 -0.8873 -0.7660
 2234SOL     OW 6879   7.770   8.322   4.434 -0.3523  0.0285 -0.1660
 2234SOL    HW1 6880   7.795   8.374   4.352 -0.5276 -1.2090 -1.0188
 2234SOL    HW2 6881   7.798   8.227   4.424  0.0561 -0.0500  1.4242
 2235SOL     OW 6882   5.645   4.588   1.724  0.0198 -0.3682 -0.5119
 2235SOL    HW1 6883   5.569   4.653   1.722 -0.4222 -0.8655 -2.9450
 2235SOL    HW2 6884   5.719   4.622   1.666  0.6347 -1.0406 -0.1344
 2236SOL     OW 6885   1.856   1.671   3.991  0.9685  0.9814  0.4013
 2236SOL    HW1 6886   1.944   1.623   3.986  0.9169  0.7487  1.4363
 2236SOL    HW2 6887   1.828   1.678   4.087 -1.2072 -0.8918 -0.0040
 2237SOL     OW 6888   1.421   0.916   7.790  0.0535  0.5342 -0.2447
 2237SOL    HW1 6889   1.465   0.915   7.700  2.0001 -0.1162  0.6558
 2237SOL    HW2 6890   1.489   0.898   7.861 -1.1450  2.5157  1.5221
 2238SOL     OW 6891   8.651   5.047   1.661 -0.2778 -0.5517  0.4954
 2238SOL    HW1 6892   8.689   5.009   1.577  1.1970 -0.9817  1.3324
 2238SOL    HW2 6893   8.570   4.993   1.687 -1.1284 -0.0306 -0.9444
 2239SOL     OW 6894   3.069   0.920   7.499  0.5886  0.2126 -0.1813
 2239SOL    HW1 6895   3.004   0.878   7.562 -1.1742  1.5075 -1.0108
 2239SOL    HW2 6896   3.056   0.882   7.407  0.7051  0.7688 -0.4349
 2240SOL     OW 6897   8.430   5.075   4.314 -0.1265 -0.6431  0.8857
 2240SOL    HW1 6898   8.518   5.029   4.304 -1.2875 -2.3256 -4.1258
 2240SOL    HW2 6899   8.356   5.013   4.286 -2.6518  1.7605  1.7467
 2241SOL     OW 6900   6.938   4.905   3.542  0.2113 -0.4456 -0.1188
 2241SOL    HW1 6901   6.862   4.881   3.483  0.7281 -0.2484 -0.8776
 2241SOL    HW2 6902   6.926   4.861   3.631 -0.1307 -1.4725 -0.6537
 2242SOL     OW 6903   7.626   7.260   3.967  0.3256 -0.1804 -0.0552
 2242SOL    HW1 6904   7.543   7.313   3.989  0.9418  0.9106 -0.3098
 2242SOL    HW2 6905   7.633   7.248   3.868 -0.2971 -1.5770  0.0441
 2243SOL     OW 6906   4.502   0.845   0.401 -0.1401  0.2103  0.4192
 2243SOL    HW1 6907   4.589   0.829   0.354  0.1636  0.8306  0.7538
 2243SOL    HW2 6908   4.433   0.874   0.335 -0.4136 -1.3597 -0.0285
 2244SOL     OW 6909   8.111   5.884   1.891 -0.7381  0.5665  0.4676
 2244SOL    HW1 6910   8.050   5.869   1.813 -1.2521  1.2834  0.7180
 2244SOL    HW2 6911   8.195   5.927   1.860 -0.1284 -0.8680  0.0489
 2245SOL     OW 6912   6.740   7.157   0.723  1.1418 -0.4075  0.3977
 2245SOL    HW1 6913   6.795   7.091   0.673  0.7320 -0.2723 -0.2327
 2245SOL    HW2 6914   6.663   7.110   0.767  2.5444 -0.8636  2.5418
 2246SOL     OW 6915   0.970   6.772   8.493 -0.1213 -0.3415  0.4332
 2246SOL    HW1 6916   0.918   6.855   8.513  0.7095  0.2232  0.2809
 2246SOL    HW2 6917   1.015   6.780   8.404  0.9321 -0.4555  0.9351
 2247SOL     OW 6918   4.031   0.138   5.839  0.3635 -0.3603 -0.1813
 2247SOL    HW1 6919   4.049   0.154   5.742 -0.1207  0.0539 -0.2062
 2247SOL    HW2 6920   4.103   0.079   5.877  0.8830 -0.0387 -0.6488
 2248SOL     OW 6921   8.206   1.899   7.589  0.3577 -0.3619  0.2810
 2248SOL    HW1 6922   8.236   1.819   7.537  2.5109  0.2158  0.5004
 2248SOL    HW2 6923   8.247   1.896   7.680 -0.8641  0.1869  0.8636
 2249SOL     OW 6924   3.848   1.775   1.449  0.3127  0.4187  0.0778
 2249SOL    HW1 6925   3.876   1.823   1.532  1.3816  1.1774 -0.6798
 2249SOL    HW2 6926   3.911   1.699   1.431  0.7459  0.9211 -0.5912
 2250SOL     OW 6927   1.635   5.935   7.080  0.3564 -0.1593  0.2494
 2250SOL    HW1 6928   1.626   5.966   7.175  0.2645 -0.6148  0.3902
 2250SOL    HW2 6929   1.658   5.838   7.079 -0.3956 -0.3387 -0.2069
 2251SOL     OW 6930   7.564   5.547   3.343 -0.1128  0.1264 -0.3819
 2251SOL    HW1 6931   7.523   5.498   3.266  1.6275  1.2568 -2.1520
 2251SOL    HW2 6932   7.604   5.481   3.407  2.8899 -0.9940 -3.0821
 2252SOL     OW 6933   6.304   4.233   6.898  0.1487 -0.3971 -0.2196
 2252SOL    HW1 6934   6.337   4.325   6.878 -0.9653  0.0393 -0.0885
 2252SOL    HW2 6935   6.375   4.182   6.946  0.2172  0.9178  1.1406
 2253SOL     OW 6936   6.980   1.927   5.795 -0.0255 -0.1144 -0.7356
 2253SOL    HW1 6937   6.923   1.845   5.792 -0.9383  0.3999  0.9880
 2253SOL    HW2 6938   7.070   1.903   5.834 -0.1364 -0.3768 -0.6367
 2254SOL     OW 6939   6.898   4.241   5.499  0.0722 -0.3217 -0.6214
 2254SOL    HW1 6940   6.892   4.141   5.509 -1.4300 -0.1739  0.1409
 2254SOL    HW2 6941   6.847   4.270   5.419 -1.0272 -0.0111  0.1720
 2255SOL     OW 6942   5.420   7.272   4.395  0.1409  0.4074 -0.2188
 2255SOL    HW1 6943   5.460   7.357   4.429  0.8170  0.0338 -0.0588
 2255SOL    HW2 6944   5.372   7.290   4.309 -1.1000  1.2501  0.6222
 2256SOL     OW 6945   6.640   2.167   4.607  0.3840  0.5853 -0.1110
 2256SOL    HW1 6946   6.729   2.194   4.645  0.3161  0.2576  0.2888
 2256SOL    HW2 6947   6.652   2.086   4.550  0.5133  1.1712 -0.9331
 2257SOL     OW 6948   4.175   7.003   6.468  0.8163 -0.0216 -0.1795
 2257SOL    HW1 6949   4.079   7.014   6.441  0.4587  1.9972  1.6704
 2257SOL    HW2 6950   4.190   6.909   6.498 -0.4110 -0.5225 -1.0558
 2258SOL     OW 6951   0.351   1.323   0.240  0.0617 -0.1427 -0.5074
 2258SOL    HW1 6952   0.413   1.255   0.200 -2.1122 -1.8777 -1.1154
 2258SOL    HW2 6953   0.374   1.336   0.336  1.4739 -0.5827 -0.7606
 2259SOL     OW 6954   4.793   3.754   7.058  0.2699 -0.2582  0.1546
 2259SOL    HW1 6955   4.848   3.837   7.044 -0.1615 -0.3147 -2.3508
 2259SOL    HW2 6956   4.814   3.715   7.147  2.5080  1.0424  0.2744
 2260SOL     OW 6957   8.485   3.568   8.579  0.6665  0.0838  0.3868
 2260SOL    HW1 6958   8.467   3.512   8.498 -1.1641  0.2178  0.6612
 2260SOL    HW2 6959   8.570   3.620   8.564  0.9907 -0.7564 -0.9497
 2261SOL     OW 6960   4.969   7.692   6.878 -0.6860  0.3794  0.0243
 2261SOL    HW1 6961   4.989   7.631   6.802  1.6025 -1.1927  1.7276
 2261SOL    HW2 6962   5.028   7.668   6.956 -0.2978  4.1940  1.1171
 2262SOL     OW 6963   3.678   1.509   6.438  0.2767 -0.2354 -0.4975
 2262SOL    HW1 6964   3.621   1.502   6.356  0.0491  1.0582 -0.4756
 2262SOL    HW2 6965   3.770   1.540   6.411 -0.6533  3.3257 -0.0534
 2263SOL     OW 6966   0.582   2.357   6.006 -0.1128 -0.2496  0.0079
 2263SOL    HW1 6967   0.498   2.412   6.010  0.1245  0.1209 -0.0479
 2263SOL    HW2 6968   0.648   2.391   6.073  0.9136  1.0284 -1.5674
 2264SOL     OW 6969   5.690   5.410   4.109 -0.2760  0.1043 -0.5997
 2264SOL    HW1 6970   5.716   5.454   4.195  0.0623 -1.9395  0.3796
 2264SOL    HW2 6971   5.616   5.463   4.066 -2.0327  0.0017  2.0507
 2265SOL     OW 6972   1.525   0.622   3.399 -0.1179 -0.2805  0.0688
 2265SOL    HW1 6973   1.609   0.627   3.345  0.0656  0.7966  0.4241
 2265SOL    HW2 6974   1.502   0.526   3.416  0.7849 -0.5984 -0.4160
 2266SOL     OW 6975   1.671   0.780   5.317 -0.6616 -0.2158 -0.2682
 2266SOL    HW1 6976   1.574   0.781   5.293 -0.1914 -3.1993 -2.9043
 2266SOL    HW2 6977   1.713   0.865   5.286 -2.3308  1.1040  0.8567
 2267SOL     OW 6978   1.857   5.844   5.950  0.6301  0.0457  0.5431
 2267SOL    HW1 6979   1.758   5.855   5.962  0.6003 -1.0120  1.4449
 2267SOL    HW2 6980   1.882   5.870   5.857 -0.6146 -0.4195  0.0525
 2268SOL     OW 6981   6.182   5.638   6.260 -0.7814 -0.3982 -0.4866
 2268SOL    HW1 6982   6.110   5.647   6.192 -1.5489  0.1513  0.3784
 2268SOL    HW2 6983   6.194   5.541   6.283 -0.1565 -0.6434 -1.7520
 2269SOL     OW 6984   2.377   3.391   6.511 -0.0506 -0.1781  0.1964
 2269SOL    HW1 6985   2.383   3.344   6.599  0.3882  0.5188  0.5427
 2269SOL    HW2 6986   2.300   3.354   6.459 -0.6879 -0.1715  1.1164
 2270SOL     OW 6987   6.670   8.622   8.693  0.2078 -0.1392 -0.1540
 2270SOL    HW1 6988   6.724   8.704   8.712  1.7832 -1.0823 -0.4107
 2270SOL    HW2 6989   6.649   8.576   8.779  0.1845 -0.0095 -0.0886
 2271SOL     OW 6990   1.087   0.542   1.680  0.5534 -0.2727 -0.1746
 2271SOL    HW1 6991   1.140   0.475   1.629  0.2452  1.9298 -3.7375
 2271SOL    HW2 6992   0.990   0.530   1.659  0.2396 -0.2545  1.1835
 2272SOL     OW 6993   3.072   0.890   7.179  0.1012 -0.3016  0.0897
 2272SOL    HW1 6994   2.994   0.831   7.202 -1.0562  1.4110  0.6949
 2272SOL    HW2 6995   3.093   0.879   7.082  0.1901 -1.9892  0.2585
 2273SOL     OW 6996   2.797   7.468   8.630 -0.2812  0.0152  0.6271
 2273SOL    HW1 6997   2.752   7.548   8.669 -0.9101 -0.0973  0.1645
 2273SOL    HW2 6998   2.821   7.404   8.702 -0.4262  0.3016  0.9305
 2274SOL     OW 6999   3.183   5.280   2.066 -0.5282  0.2900 -0.1616
 2274SOL    HW1 7000   3.111   5.262   2.133  0.2045  1.6573  1.0571
 2274SOL    HW2 7001   3.143   5.324   1.986 -1.6179 -2.4706 -1.2670
 2275SOL     OW 7002   5.529   2.141   7.036 -0.2343 -0.5395 -0.3499
 2275SOL    HW1 7003   5.446   2.180   6.996  1.4895  1.4887 -2.2072
 2275SOL    HW2 7004   5.505   2.063   7.093 -3.3735 -0.1384 -0.9480
 2276SOL     OW 7005   8.813   0.855   0.080 -0.1821  0.4556 -0.3282
 2276SOL    HW1 7006   8.767   0.858   0.169 -1.3052  1.9272 -0.9216
 2276SOL    HW2 7007   8.745   0.858   0.007  0.7385 -0.4715 -1.2655
 2277SOL     OW 7008   5.931   6.645   6.509  0.1128 -0.5186  0.3811
 2277SOL    HW1 7009   6.000   6.582   6.474  0.5129 -0.8374  1.6740
 2277SOL    HW2 7010   5.976   6.730   6.538 -0.3384  0.1232 -0.7670
 2278SOL     OW 7011   2.725   6.485   1.800  0.0264  0.3332 -0.4648
 2278SOL    HW1 7012   2.820   6.454   1.810 -0.3948 -1.2768 -1.0650
 2278SOL    HW2 7013   2.711   6.521   1.708  0.3500  1.7688  0.0266
 2279SOL     OW 7014   7.453   5.142   5.021  0.5836 -0.0605 -1.0460
 2279SOL    HW1 7015   7.408   5.096   5.098  0.6039 -0.0423 -1.0234
 2279SOL    HW2 7016   7.421   5.102   4.935 -1.2942  1.5282 -1.1511
 2280SOL     OW 7017   4.561   5.801   8.182 -0.4498 -0.6136 -0.1435
 2280SOL    HW1 7018   4.516   5.816   8.094  0.6562  0.6049 -0.5288
 2280SOL    HW2 7019   4.547   5.881   8.241 -0.4678 -1.0639  0.4736
 2281SOL     OW 7020   5.782   0.719   0.001 -0.2208  0.3393 -0.3471
 2281SOL    HW1 7021   5.808   0.691  -0.092 -0.9369 -0.3285 -0.3574
 2281SOL    HW2 7022   5.683   0.715   0.010 -0.2025  1.0590  0.2518
 2282SOL     OW 7023   6.180   3.211   0.848 -0.4344 -0.2139 -0.0809
 2282SOL    HW1 7024   6.086   3.179   0.846 -0.6584  0.3363  0.9546
 2282SOL    HW2 7025   6.240   3.143   0.804 -1.0653 -1.4019  0.8542
 2283SOL     OW 7026   3.034   1.834   4.593 -0.4592 -0.3071 -0.2823
 2283SOL    HW1 7027   3.066   1.898   4.523 -1.5405 -0.8098 -1.2840
 2283SOL    HW2 7028   2.939   1.856   4.617 -0.3307 -0.5864  0.5007
 2284SOL     OW 7029   1.472   3.104   3.530  0.2768  0.1985  0.0824
 2284SOL    HW1 7030   1.542   3.037   3.557 -1.4265 -0.7804  2.4830
 2284SOL    HW2 7031   1.478   3.184   3.588  0.4583  0.8820 -0.8540
 2285SOL     OW 7032   8.722   8.474   6.352  0.4230 -0.3084 -0.0648
 2285SOL    HW1 7033   8.779   8.392   6.345  0.7347  0.0123 -2.0154
 2285SOL    HW2 7034   8.780   8.555   6.347 -0.1075  0.0213 -1.8446
 2286SOL     OW 7035   1.702   4.243   2.599  0.0721  0.2407 -0.1067
 2286SOL    HW1 7036   1.603   4.233   2.589  0.2044 -1.5924  0.2192
 2286SOL    HW2 7037   1.723   4.270   2.693 -0.0064 -1.9564  0.5958
 2287SOL     OW 7038   8.587   6.998   5.290  0.3061  0.1626 -0.0338
 2287SOL    HW1 7039   8.574   6.982   5.192 -0.0723 -0.4307  0.1045
 2287SOL    HW2 7040   8.685   7.008   5.310  0.2838  2.2873 -0.7522
 2288SOL     OW 7041   3.999   0.083   1.936 -0.0664  0.6161  0.3999
 2288SOL    HW1 7042   4.040   0.169   1.906 -0.0807  0.5999  0.3331
 2288SOL    HW2 7043   3.979   0.088   2.034 -1.9810  1.4659  0.0124
 2289SOL     OW 7044   8.283   0.709   3.676 -0.5154  0.2172  0.0962
 2289SOL    HW1 7045   8.199   0.667   3.644 -1.6188  0.8455  2.0250
 2289SOL    HW2 7046   8.359   0.683   3.616 -1.9368 -0.9251 -1.2617
 2290SOL     OW 7047   7.658   6.223   1.405  1.0582 -0.4826 -0.0973
 2290SOL    HW1 7048   7.649   6.271   1.318  0.5888 -1.0588 -0.3819
 2290SOL    HW2 7049   7.568   6.188   1.432  1.3150 -0.8333  0.3104
 2291SOL     OW 7050   7.477   5.416   3.123  0.2855  0.0859 -0.0677
 2291SOL    HW1 7051   7.392   5.404   3.072  1.6424 -0.6444 -2.3152
 2291SOL    HW2 7052   7.527   5.329   3.125  0.2573  0.0630  2.6947
 2292SOL     OW 7053   4.589   5.341   3.499 -0.2788 -0.2486 -0.2408
 2292SOL    HW1 7054   4.678   5.335   3.543 -0.0298 -1.0200 -0.8154
 2292SOL    HW2 7055   4.518   5.316   3.564 -0.1259  0.7548  0.3353
 2293SOL     OW 7056   6.298   6.885   0.986 -0.5624  0.6195 -0.0994
 2293SOL    HW1 7057   6.291   6.822   0.908  0.7905 -0.3579  0.5259
 2293SOL    HW2 7058   6.219   6.872   1.046 -0.7372  0.1301 -0.4306
 2294SOL     OW 7059   7.464   4.514   6.154 -0.3622  0.0229 -0.0643
 2294SOL    HW1 7060   7.422   4.601   6.180 -2.0485 -0.3102 -1.4955
 2294SOL    HW2 7061   7.394   4.443   6.149  0.4913 -0.7713 -1.7234
 2295SOL     OW 7062   1.949   2.099   7.289  0.3056 -0.2566  0.1503
 2295SOL    HW1 7063   1.897   2.019   7.321 -0.6568 -0.2354 -1.2434
 2295SOL    HW2 7064   2.027   2.067   7.233 -2.2673 -0.3687 -3.7909
 2296SOL     OW 7065   7.398   0.320   7.569 -0.1171 -0.1229 -0.3679
 2296SOL    HW1 7066   7.479   0.270   7.539  0.1539  0.1727 -0.1356
 2296SOL    HW2 7067   7.362   0.375   7.494 -0.2316 -0.4192 -0.5332
 2297SOL     OW 7068   8.211   1.172   1.153 -0.1398 -0.0256 -0.4618
 2297SOL    HW1 7069   8.118   1.173   1.116 -1.1562  0.1984  1.9064
 2297SOL    HW2 7070   8.212   1.123   1.240  1.5149  1.7826  0.6395
 2298SOL     OW 7071   6.889   8.309   6.905 -0.3904  0.0101  0.1955
 2298SOL    HW1 7072   6.819   8.259   6.955 -2.1361 -0.3676 -2.4039
 2298SOL    HW2 7073   6.852   8.340   6.817  2.8057 -0.5493 -1.5274
 2299SOL     OW 7074   4.843   6.636   4.394 -1.0043  0.5648  0.7482
 2299SOL    HW1 7075   4.917   6.569   4.391  0.2167  1.8930 -1.0118
 2299SOL    HW2 7076   4.756   6.590   4.413  0.2511 -1.0117  3.0482
 2300SOL     OW 7077   4.426   5.011   5.844 -0.6005  0.0177 -0.4195
 2300SOL    HW1 7078   4.351   5.071   5.868 -0.5772 -0.0579 -0.1438
 2300SOL    HW2 7079   4.455   5.028   5.750 -0.6282  0.3964 -0.3589
 2301SOL     OW 7080   1.652   7.288   6.838 -0.4073 -0.0542 -0.4800
 2301SOL    HW1 7081   1.671   7.380   6.803 -0.2298  0.8345  1.7635
 2301SOL    HW2 7082   1.586   7.294   6.913 -1.1451 -1.8957 -0.9272
 2302SOL     OW 7083   6.819   1.377   4.744 -0.2986  0.0906  0.0703
 2302SOL    HW1 7084   6.724   1.408   4.745  0.1352  1.4722  0.9067
 2302SOL    HW2 7085   6.822   1.278   4.759 -1.5678  0.1349  0.7697
 2303SOL     OW 7086   6.615   7.052   6.791 -0.3760 -0.1116  0.3215
 2303SOL    HW1 7087   6.702   7.003   6.798 -0.0863  0.4599  0.8525
 2303SOL    HW2 7088   6.627   7.133   6.733 -0.8092 -0.5678 -0.4183
 2304SOL     OW 7089   6.754   3.824   3.709 -0.7112  0.0508  0.0583
 2304SOL    HW1 7090   6.759   3.815   3.808  0.4693 -0.9131 -0.0682
 2304SOL    HW2 7091   6.690   3.755   3.672 -0.9161  0.2078  0.1180
 2305SOL     OW 7092   0.525   2.183   6.685  0.6318  0.2129  0.3610
 2305SOL    HW1 7093   0.489   2.101   6.729  0.3520  0.2955  0.2896
 2305SOL    HW2 7094   0.507   2.262   6.744  0.5943  0.2699  0.2733
 2306SOL     OW 7095   8.826   4.123   1.755 -0.1006 -0.2749  0.6229
 2306SOL    HW1 7096   8.852   4.220   1.756  0.1758 -0.3502  0.8887
 2306SOL    HW2 7097   8.730   4.115   1.727 -0.3092  0.1236  1.2037
 2307SOL     OW 7098   3.584   6.834   1.651 -0.2704  0.3408 -0.0755
 2307SOL    HW1 7099   3.534   6.915   1.620  1.7557  0.5613 -3.1728
 2307SOL    HW2 7100   3.553   6.754   1.601 -0.8998 -0.4994  1.5744
 2308SOL     OW 7101   3.921   3.618   2.555  0.4207  0.8112  0.2749
 2308SOL    HW1 7102   4.009   3.602   2.511 -0.7827 -0.8189 -1.7200
 2308SOL    HW2 7103   3.912   3.558   2.635  0.4285 -0.3456 -0.5752
 2309SOL     OW 7104   4.730   7.020   0.981  1.0018  0.2465  0.2529
 2309SOL    HW1 7105   4.670   7.029   0.902  0.2297 -1.9160  0.5268
 2309SOL    HW2 7106   4.810   6.965   0.956  0.5032 -0.8854  1.0617
 2310SOL     OW 7107   7.992   0.255   3.267  0.3755 -0.0400  0.2424
 2310SOL    HW1 7108   8.077   0.261   3.214  0.8462 -1.1774  0.8452
 2310SOL    HW2 7109   7.975   0.160   3.293 -1.3518  0.1025 -0.2796
 2311SOL     OW 7110   3.910   5.907   4.767  0.1959  0.2329  0.0478
 2311SOL    HW1 7111   3.972   5.979   4.734  0.5835 -0.1470 -0.0609
 2311SOL    HW2 7112   3.956   5.818   4.762 -0.9226 -0.3109 -1.6672
 2312SOL     OW 7113   4.864   4.769   1.694  0.5498 -0.0980  0.2965
 2312SOL    HW1 7114   4.920   4.823   1.632 -0.1934  2.6613  1.8825
 2312SOL    HW2 7115   4.775   4.751   1.651 -0.1192  2.1594  0.6031
 2313SOL     OW 7116   8.269   4.931   6.503 -0.1927 -0.1054 -0.3150
 2313SOL    HW1 7117   8.329   4.991   6.556 -1.1556  1.8939 -1.3640
 2313SOL    HW2 7118   8.315   4.904   6.419  0.0383 -0.3777 -0.1020
 2314SOL     OW 7119   1.026   2.937   4.338 -0.5136 -0.3841 -0.2426
 2314SOL    HW1 7120   1.031   3.034   4.314  0.9624 -0.4078 -0.1304
 2314SOL    HW2 7121   0.962   2.925   4.414  0.8316  0.8103  1.1406
 2315SOL     OW 7122   3.425   2.241   2.611  0.2989 -0.6362  1.1307
 2315SOL    HW1 7123   3.357   2.196   2.668  0.0489 -1.5653  0.1332
 2315SOL    HW2 7124   3.511   2.190   2.614  0.2655 -0.7259  0.6359
 2316SOL     OW 7125   4.269   6.287   8.428  0.0876 -0.2714 -0.1006
 2316SOL    HW1 7126   4.354   6.337   8.414 -0.0090 -0.4538 -1.4694
 2316SOL    HW2 7127   4.262   6.259   8.524  0.7309  1.2358  0.4139
 2317SOL     OW 7128   0.414   7.998   8.041 -0.1736  0.2852 -0.4288
 2317SOL    HW1 7129   0.484   8.064   8.067 -1.2078  0.9914  0.6311
 2317SOL    HW2 7130   0.336   8.046   8.001 -0.9631 -0.2641  0.4070
 2318SOL     OW 7131   6.032   7.948   0.959  0.7612 -0.2042  0.2719
 2318SOL    HW1 7132   5.988   7.861   0.977  0.7784 -0.0626  1.0331
 2318SOL    HW2 7133   5.992   7.989   0.877  0.4347 -0.7082  0.1728
 2319SOL     OW 7134   4.293   0.904   0.234  0.1797  0.2263 -0.2739
 2319SOL    HW1 7135   4.296   1.001   0.209 -0.8775  0.1897 -0.6093
 2319SOL    HW2 7136   4.203   0.883   0.274 -0.0861 -0.8819 -1.3838
 2320SOL     OW 7137   7.576   8.320   2.793  0.5346  0.3779  0.6737
 2320SOL    HW1 7138   7.509   8.287   2.727 -0.2043 -1.1925  2.1194
 2320SOL    HW2 7139   7.664   8.332   2.748 -0.1283  0.0864 -0.7478
 2321SOL     OW 7140   8.772   7.512   5.758 -0.5110  0.3994 -0.1978
 2321SOL    HW1 7141   8.734   7.465   5.678 -0.2331  1.3366 -0.9022
 2321SOL    HW2 7142   8.752   7.609   5.752  1.0930  0.7592 -0.0601
 2322SOL     OW 7143   4.124   6.369   5.122  0.5822  0.5447 -0.3878
 2322SOL    HW1 7144   4.134   6.271   5.138  0.9913  0.2917 -2.0498
 2322SOL    HW2 7145   4.065   6.408   5.192 -0.1163 -1.0040 -0.0709
 2323SOL     OW 7146   2.950   7.948   4.910 -0.1555  0.5214 -0.0356
 2323SOL    HW1 7147   2.866   7.895   4.920  0.1455 -0.1878 -1.1352
 2323SOL    HW2 7148   2.934   8.042   4.941 -0.4664 -0.3606  2.8317
 2324SOL     OW 7149   4.513   8.160   1.664 -0.6889  0.9135  0.0705
 2324SOL    HW1 7150   4.561   8.198   1.744 -0.6234 -1.1137  1.0766
 2324SOL    HW2 7151   4.419   8.138   1.689 -0.1353 -1.5711  0.2905
 2325SOL     OW 7152   5.363   3.028   4.188 -0.7343 -0.0461  0.1340
 2325SOL    HW1 7153   5.411   2.946   4.221 -0.0475  0.9279  1.6778
 2325SOL    HW2 7154   5.289   3.051   4.252 -0.9159  0.5391 -0.2822
 2326SOL     OW 7155   3.007   7.743   7.824  0.1206  0.3540  0.1786
 2326SOL    HW1 7156   2.922   7.691   7.831 -0.6667  1.7147  0.9832
 2326SOL    HW2 7157   3.063   7.704   7.751 -0.2864 -1.8085  0.9267
 2327SOL     OW 7158   4.444   4.716   2.900 -0.4304 -0.5428 -0.1474
 2327SOL    HW1 7159   4.417   4.812   2.896  0.3772 -0.2795  0.5133
 2327SOL    HW2 7160   4.401   4.667   2.824  0.6832  0.7296 -1.6611
 2328SOL     OW 7161   0.932   0.851   7.510 -0.5416 -0.1535 -0.7408
 2328SOL    HW1 7162   0.965   0.760   7.535 -1.6433 -0.1522  0.8812
 2328SOL    HW2 7163   1.009   0.915   7.508 -0.0821 -0.6129  0.6679
 2329SOL     OW 7164   2.208   7.004   6.813 -0.1387 -0.0793  0.2494
 2329SOL    HW1 7165   2.184   6.956   6.898 -0.6228  0.2873  0.3256
 2329SOL    HW2 7166   2.126   7.014   6.756  0.2651 -0.6999 -0.4572
 2330SOL     OW 7167   7.316   4.920   5.863  0.3627 -0.1759 -0.3319
 2330SOL    HW1 7168   7.226   4.882   5.841  0.0627 -0.0222  0.6018
 2330SOL    HW2 7169   7.386   4.858   5.829 -0.0805 -0.1388 -1.3540
 2331SOL     OW 7170   1.081   0.732   1.905  0.1848 -0.2805 -0.0601
 2331SOL    HW1 7171   1.120   0.688   1.987  2.6136  1.2883 -0.2654
 2331SOL    HW2 7172   1.102   0.676   1.825  3.0402  0.9315 -0.2856
 2332SOL     OW 7173   7.670   8.598   4.692  0.2718  0.3312  0.4958
 2332SOL    HW1 7174   7.670   8.576   4.789 -0.9834 -0.0785  0.4144
 2332SOL    HW2 7175   7.582   8.572   4.651  1.5112 -1.4692 -1.2069
 2333SOL     OW 7176   6.700   4.959   7.256  0.4378  0.3412  0.1522
 2333SOL    HW1 7177   6.602   4.939   7.250  0.1312  1.5243  0.7795
 2333SOL    HW2 7178   6.724   4.976   7.351  0.9648  1.3755 -0.1532
 2334SOL     OW 7179   0.528   1.460   8.619  0.0348  0.3612  0.1292
 2334SOL    HW1 7180   0.545   1.417   8.530  1.1710  0.0372  0.4867
 2334SOL    HW2 7181   0.496   1.553   8.605  1.1089  0.6433 -0.6374
 2335SOL     OW 7182   7.767   5.184   0.701 -0.7992  0.0975 -0.2312
 2335SOL    HW1 7183   7.840   5.119   0.721  0.2930  0.6199 -2.2748
 2335SOL    HW2 7184   7.699   5.140   0.641 -1.2787  0.1526  0.2592
 2336SOL     OW 7185   0.240   8.134   1.156 -0.3676  0.7864 -0.2556
 2336SOL    HW1 7186   0.206   8.133   1.062  2.8412 -0.2239 -1.5603
 2336SOL    HW2 7187   0.219   8.047   1.200  1.3680 -0.3080 -1.4572
 2337SOL     OW 7188   8.019   0.016   7.174  0.7705  1.1075 -0.3210
 2337SOL    HW1 7189   8.061   0.091   7.226  2.6080 -0.4532  0.5777
 2337SOL    HW2 7190   7.938  -0.017   7.223  1.2859  1.0228  0.5034
 2338SOL     OW 7191   1.521   3.299   5.676 -0.0484 -0.3493 -0.3753
 2338SOL    HW1 7192   1.606   3.274   5.629 -0.0062  0.9893 -1.0639
 2338SOL    HW2 7193   1.443   3.275   5.618 -0.1764 -1.7871  0.3545
 2339SOL     OW 7194   1.899   7.697   5.573  0.2590  0.3002 -0.4714
 2339SOL    HW1 7195   1.911   7.745   5.486  0.4549  1.0639 -0.0268
 2339SOL    HW2 7196   1.803   7.668   5.581 -0.3046  2.1453  0.0100
 2340SOL     OW 7197   0.157   6.168   2.066  0.2226 -0.2278  0.3444
 2340SOL    HW1 7198   0.186   6.083   2.021  1.3448 -0.3719  1.3130
 2340SOL    HW2 7199   0.193   6.246   2.016 -1.3820 -0.2559 -0.9536
 2341SOL     OW 7200   4.609   7.389   2.818  0.0244  0.1374  0.1442
 2341SOL    HW1 7201   4.663   7.307   2.839 -1.8395 -1.0680  0.5583
 2341SOL    HW2 7202   4.596   7.442   2.902  1.1163  0.8007 -0.0956
 2342SOL     OW 7203   5.790   7.443   5.926  0.1696 -0.0053 -0.1998
 2342SOL    HW1 7204   5.876   7.394   5.912 -0.5398 -1.6658  0.9539
 2342SOL    HW2 7205   5.714   7.387   5.893 -0.5347  1.1898 -0.6671
 2343SOL     OW 7206   2.161   7.169   7.540  0.1693 -0.0954  0.3233
 2343SOL    HW1 7207   2.086   7.151   7.475 -1.1190  1.1750  1.3804
 2343SOL    HW2 7208   2.194   7.083   7.577 -2.6442 -0.6533  1.8310
 2344SOL     OW 7209   1.214   7.535   4.336  0.1536 -0.0768 -0.2116
 2344SOL    HW1 7210   1.145   7.463   4.348 -0.8244  0.4942 -1.9598
 2344SOL    HW2 7211   1.254   7.558   4.424 -0.8374 -1.4568  0.6493
 2345SOL     OW 7212   3.598   7.207   1.069 -0.3119 -0.0629  0.1629
 2345SOL    HW1 7213   3.677   7.203   1.009 -1.1735 -1.1892 -0.9467
 2345SOL    HW2 7214   3.520   7.245   1.020 -1.0057 -0.9081  0.5811
 2346SOL     OW 7215   1.045   1.577   8.790  0.2531  0.2129 -0.0726
 2346SOL    HW1 7216   1.126   1.565   8.846 -0.6887 -3.3612  0.8399
 2346SOL    HW2 7217   0.978   1.634   8.838 -0.2424 -2.1574  2.3062
 2347SOL     OW 7218   4.298   0.524   0.702 -0.1328  0.1750  0.4281
 2347SOL    HW1 7219   4.287   0.576   0.617  1.0769 -0.0313  0.1347
 2347SOL    HW2 7220   4.311   0.588   0.778  1.5489  0.3273  0.0397
 2348SOL     OW 7221   7.971   3.408   5.962  0.5067  0.3564  0.4771
 2348SOL    HW1 7222   8.013   3.317   5.963  1.7259  0.8588 -1.1994
 2348SOL    HW2 7223   7.969   3.444   6.055  0.1104 -1.3028  1.1581
 2349SOL     OW 7224   5.080   5.487   8.108 -0.1611 -0.6675  0.1618
 2349SOL    HW1 7225   5.018   5.540   8.049 -1.4165 -2.0931  0.1295
 2349SOL    HW2 7226   5.168   5.476   8.062 -0.0578  0.8948 -0.0654
 2350SOL     OW 7227   2.006   7.859   2.704  0.1937  0.0964  0.1368
 2350SOL    HW1 7228   1.968   7.811   2.784  1.8901  0.9646  1.5387
 2350SOL    HW2 7229   2.043   7.947   2.733  2.6583 -0.4089 -1.2338
 2351SOL     OW 7230   8.418   8.056   3.554 -0.4680 -0.2467  0.1535
 2351SOL    HW1 7231   8.455   8.128   3.494 -0.8702 -0.8596 -0.8556
 2351SOL    HW2 7232   8.388   8.097   3.640  0.7937  0.5499  0.2482
 2352SOL     OW 7233   4.967   6.076   3.111  0.2673  0.2033 -0.2131
 2352SOL    HW1 7234   4.872   6.101   3.090 -0.3442 -2.5615 -1.1344
 2352SOL    HW2 7235   4.969   6.016   3.191  1.3657  0.8627  0.2816
 2353SOL     OW 7236   7.114   1.216   8.431  0.0560  0.0504  0.0108
 2353SOL    HW1 7237   7.185   1.175   8.374  0.4737 -1.3808  1.5050
 2353SOL    HW2 7238   7.140   1.310   8.454 -0.0953  0.6528 -2.0238
 2354SOL     OW 7239   6.811   4.571   0.014 -0.1361 -0.6334 -0.1365
 2354SOL    HW1 7240   6.805   4.472   0.027 -0.2010 -0.3564  2.3780
 2354SOL    HW2 7241   6.907   4.598   0.012 -0.0579 -0.8901 -2.6246
 2355SOL     OW 7242   7.250   6.030   8.507  0.4989  0.0789  0.1122
 2355SOL    HW1 7243   7.252   6.042   8.606 -0.1732 -1.7846  0.4020
 2355SOL    HW2 7244   7.321   6.086   8.465  0.4697  1.2854  1.5850
 2356SOL     OW 7245   4.713   3.699   4.240  0.7916 -0.0504 -0.1662
 2356SOL    HW1 7246   4.660   3.615   4.223  0.6965  0.5139 -3.2591
 2356SOL    HW2 7247   4.771   3.718   4.161  3.5297  0.9422  1.9468
 2357SOL     OW 7248   2.232   3.864   8.583 -0.2693  0.0381 -0.1441
 2357SOL    HW1 7249   2.147   3.916   8.592  0.5661  1.2257  1.4421
 2357SOL    HW2 7250   2.310   3.928   8.580  0.6338 -1.0502 -0.6423
 2358SOL     OW 7251   1.320   3.070   7.420 -0.4075  0.0862 -0.9942
 2358SOL    HW1 7252   1.356   2.977   7.427 -2.5143 -0.8956 -2.2028
 2358SOL    HW2 7253   1.384   3.127   7.370  1.3931 -0.3862  0.6287
 2359SOL     OW 7254   4.763   3.877   7.981 -0.4646  0.3835 -0.0696
 2359SOL    HW1 7255   4.800   3.864   8.073  1.4634 -0.3486 -0.9046
 2359SOL    HW2 7256   4.703   3.958   7.980 -0.5181  0.4009  1.8019
 2360SOL     OW 7257   3.216   2.489   5.629 -0.1161  0.1356  0.1754
 2360SOL    HW1 7258   3.203   2.563   5.563 -1.1744 -0.9624 -0.9179
 2360SOL    HW2 7259   3.188   2.519   5.720  0.3671  1.3541 -0.0609
 2361SOL     OW 7260   1.895   0.139   5.084  0.3746  0.3349 -0.5455
 2361SOL    HW1 7261   1.929   0.157   5.176 -0.1080 -0.1347 -0.2683
 2361SOL    HW2 7262   1.972   0.122   5.022  0.7322  1.3086 -0.3770
 2362SOL     OW 7263   0.760   7.503   1.762 -0.2694  0.7407 -0.2311
 2362SOL    HW1 7264   0.751   7.585   1.817 -1.1060  0.6595 -0.2348
 2362SOL    HW2 7265   0.713   7.516   1.674  1.4060  1.0317 -1.1254
 2363SOL     OW 7266   8.424   2.801   5.062 -0.1551 -0.0104 -0.0602
 2363SOL    HW1 7267   8.411   2.750   5.147  0.7638 -1.0302 -0.5083
 2363SOL    HW2 7268   8.379   2.890   5.070 -1.2742 -0.6373  0.9668
 2364SOL     OW 7269   0.438   3.529   1.263 -0.0221  0.3066 -0.1565
 2364SOL    HW1 7270   0.341   3.522   1.287 -0.0855 -1.6873 -0.8182
 2364SOL    HW2 7271   0.467   3.445   1.218  2.0629  0.8193  0.1366
 2365SOL     OW 7272   7.846   4.148   3.053 -0.0389 -0.1756  0.4179
 2365SOL    HW1 7273   7.786   4.219   3.090 -0.2016 -0.8834  1.5535
 2365SOL    HW2 7274   7.798   4.061   3.051  0.3937 -0.4089 -0.2949
 2366SOL     OW 7275   4.972   0.680   2.917 -0.5624  0.7309 -0.2956
 2366SOL    HW1 7276   4.935   0.643   2.832 -1.7365  1.8388 -0.2931
 2366SOL    HW2 7277   5.050   0.740   2.896  0.1249 -0.1851 -0.4427
 2367SOL     OW 7278   8.254   0.286   4.642 -0.0095  0.1067  0.0256
 2367SOL    HW1 7279   8.329   0.239   4.596 -0.0320  0.8465 -0.7900
 2367SOL    HW2 7280   8.233   0.371   4.595  0.3380  1.1990  1.7420
 2368SOL     OW 7281   7.040   6.914   8.758  0.3229  0.0608  0.0546
 2368SOL    HW1 7282   6.996   6.827   8.781  0.0654  0.6491  1.9862
 2368SOL    HW2 7283   7.084   6.952   8.839  0.9135  1.4785 -0.8820
 2369SOL     OW 7284   6.636   1.796   8.050 -0.5001  0.3164 -0.2761
 2369SOL    HW1 7285   6.646   1.878   8.105 -1.7840  0.9070 -0.8703
 2369SOL    HW2 7286   6.678   1.718   8.097 -1.1204  0.9019  1.2950
 2370SOL     OW 7287   4.219   1.766   2.416  0.0749  0.6415 -0.3484
 2370SOL    HW1 7288   4.238   1.804   2.507  2.5191 -0.3604 -0.3599
 2370SOL    HW2 7289   4.241   1.833   2.346  2.9708 -0.1500 -0.3142
 2371SOL     OW 7290   8.092   3.296   1.712 -0.6258  0.3668 -0.0340
 2371SOL    HW1 7291   8.190   3.316   1.702 -0.4502 -1.2032 -1.9938
 2371SOL    HW2 7292   8.040   3.353   1.649 -0.7600 -0.3803 -0.6049
 2372SOL     OW 7293   6.306   4.372   1.105 -0.1527 -0.3273  0.1104
 2372SOL    HW1 7294   6.366   4.301   1.140 -0.8930 -0.7571  0.5341
 2372SOL    HW2 7295   6.236   4.331   1.046  0.4691  0.2679 -1.0635
 2373SOL     OW 7296   4.369   1.538   3.449 -0.3358 -0.1325  0.0415
 2373SOL    HW1 7297   4.375   1.503   3.543 -2.7792 -2.2048 -0.4844
 2373SOL    HW2 7298   4.344   1.464   3.387  2.5569  0.8603 -2.5772
 2374SOL     OW 7299   0.913   0.260   2.331 -0.0580 -0.5192  0.0716
 2374SOL    HW1 7300   0.992   0.225   2.380  0.3909  1.0924  0.5358
 2374SOL    HW2 7301   0.912   0.222   2.238  0.1139 -2.1112  0.6789
 2375SOL     OW 7302   3.370   0.900   2.829 -0.2346  0.7774  0.3631
 2375SOL    HW1 7303   3.278   0.902   2.790 -0.4639 -0.7757  0.7520
 2375SOL    HW2 7304   3.435   0.870   2.759 -0.3834 -0.3091  0.6706
 2376SOL     OW 7305   8.515   6.438   4.391 -0.9257 -0.0940 -0.5201
 2376SOL    HW1 7306   8.533   6.533   4.365 -2.0474  0.8986  1.9831
 2376SOL    HW2 7307   8.601   6.390   4.406 -0.3484  0.6881 -1.2692
 2377SOL     OW 7308   2.253   1.888   7.989  0.0293  0.1104 -0.2655
 2377SOL    HW1 7309   2.336   1.842   7.956  2.2978  2.8928  1.0619
 2377SOL    HW2 7310   2.259   1.899   8.088 -2.1601  0.0649 -0.0925
 2378SOL     OW 7311   4.291   7.118   7.745  0.3865 -0.3743 -0.1484
 2378SOL    HW1 7312   4.222   7.149   7.680  0.6086  1.2391  0.3453
 2378SOL    HW2 7313   4.341   7.040   7.706 -0.8800 -0.7860 -1.0100
 2379SOL     OW 7314   5.565   1.284   2.695  0.5662  0.3951 -0.1712
 2379SOL    HW1 7315   5.481   1.324   2.657  0.6974  1.2417  0.4140
 2379SOL    HW2 7316   5.542   1.202   2.747  0.1216  0.5227 -0.1614
 2380SOL     OW 7317   0.859   8.834   1.192  0.2473  0.1116  0.0739
 2380SOL    HW1 7318   0.919   8.815   1.115  1.1259 -1.2533  1.0570
 2380SOL    HW2 7319   0.764   8.821   1.164  0.4443  1.2238 -1.2006
 2381SOL     OW 7320   5.130   3.430   2.730  0.5429  0.2134 -0.1956
 2381SOL    HW1 7321   5.092   3.434   2.638 -0.5428  0.3288  0.2375
 2381SOL    HW2 7322   5.124   3.337   2.765 -0.2877  0.4219  0.2450
 2382SOL     OW 7323   0.161   6.900   3.555 -0.1628 -0.1945  0.5395
 2382SOL    HW1 7324   0.080   6.955   3.534  0.0222 -0.3408 -0.6031
 2382SOL    HW2 7325   0.229   6.958   3.600  0.0262  0.5369 -0.6390
 2383SOL     OW 7326   5.925   1.363   3.538  0.5236 -0.5223 -0.0587
 2383SOL    HW1 7327   5.871   1.443   3.513  0.5647 -0.2960  0.5608
 2383SOL    HW2 7328   5.983   1.336   3.461 -0.8146 -1.0663 -0.9098
 2384SOL     OW 7329   3.866   4.516   3.880  0.1291 -0.2168 -0.4109
 2384SOL    HW1 7330   3.826   4.599   3.919 -1.3322 -1.5143  0.9291
 2384SOL    HW2 7331   3.793   4.454   3.850  1.1933 -0.4612 -2.7346
 2385SOL     OW 7332   0.273   2.020   6.038 -0.4171  0.5762 -0.8341
 2385SOL    HW1 7333   0.297   1.928   6.009 -1.2720 -0.0344  0.3275
 2385SOL    HW2 7334   0.330   2.047   6.115 -0.9001  0.5921 -0.4784
 2386SOL     OW 7335   3.599   2.607   1.782 -0.1199  0.4447 -0.1592
 2386SOL    HW1 7336   3.592   2.622   1.881 -0.7595  0.3639 -0.1928
 2386SOL    HW2 7337   3.613   2.695   1.736 -0.7460  0.5866 -0.0779
 2387SOL     OW 7338   0.207   2.075   5.380  0.7765 -0.1465  0.1080
 2387SOL    HW1 7339   0.107   2.074   5.391  0.5850 -0.2074 -1.4198
 2387SOL    HW2 7340   0.242   2.166   5.402  0.2905  0.0806 -0.0475
 2388SOL     OW 7341   4.786   5.118   4.156 -0.0444  0.6516  0.4946
 2388SOL    HW1 7342   4.857   5.183   4.183  0.8944 -0.1632  0.0504
 2388SOL    HW2 7343   4.813   5.072   4.071  0.1726 -1.5749  1.6737
 2389SOL     OW 7344   3.340   7.332   8.370 -0.0045 -0.6767 -0.3864
 2389SOL    HW1 7345   3.425   7.362   8.326 -0.1223 -2.2178 -1.7372
 2389SOL    HW2 7346   3.359   7.255   8.430 -0.1578  0.2545  0.9120
 2390SOL     OW 7347   8.675   5.571   3.276 -0.1588 -0.1332  0.8673
 2390SOL    HW1 7348   8.699   5.603   3.185  0.2671  2.8010  1.8967
 2390SOL    HW2 7349   8.732   5.492   3.300  1.8268  0.8663 -0.3202
 2391SOL     OW 7350   8.291   5.673   3.633  0.0132 -0.0202  0.0265
 2391SOL    HW1 7351   8.244   5.709   3.714 -0.6073 -1.0826  0.1597
 2391SOL    HW2 7352   8.349   5.745   3.593  0.0344  0.6331  1.1839
 2392SOL     OW 7353   0.637   7.931   7.198 -0.7012 -0.2670 -0.1966
 2392SOL    HW1 7354   0.580   7.855   7.168 -0.1128 -0.3416 -1.1721
 2392SOL    HW2 7355   0.711   7.897   7.256 -0.2976 -0.4793 -0.8295
 2393SOL     OW 7356   2.383   0.497   7.685  0.0296  0.3318  0.0441
 2393SOL    HW1 7357   2.431   0.488   7.773 -1.8113  1.4266  1.2310
 2393SOL    HW2 7358   2.292   0.457   7.693 -0.0670  0.2039 -1.4869
 2394SOL     OW 7359   1.484   3.199   0.794 -0.3464  0.3923  0.1643
 2394SOL    HW1 7360   1.474   3.101   0.777 -0.9411  0.7132 -1.5091
 2394SOL    HW2 7361   1.395   3.240   0.812 -0.1992  0.7627  0.0842
 2395SOL     OW 7362   5.356   4.064   1.421  0.0517  0.0419 -0.6419
 2395SOL    HW1 7363   5.330   3.971   1.445  0.5695  0.3660  1.3034
 2395SOL    HW2 7364   5.437   4.062   1.363  1.2329 -0.6935  0.9715
 2396SOL     OW 7365   7.938   8.119   6.738  0.1922 -0.0568 -0.3711
 2396SOL    HW1 7366   8.030   8.159   6.732  0.5342 -0.9553 -1.4101
 2396SOL    HW2 7367   7.887   8.141   6.655 -0.5851  0.5234  0.2437
 2397SOL     OW 7368   6.886   7.683   1.559 -0.4522 -0.1079  0.2478
 2397SOL    HW1 7369   6.905   7.778   1.582 -0.8339  0.0307 -0.0014
 2397SOL    HW2 7370   6.814   7.648   1.619 -1.4058  0.2359 -0.6726
 2398SOL     OW 7371   6.173   6.707   1.224 -0.8142  0.0013  0.3816
 2398SOL    HW1 7372   6.138   6.626   1.177 -1.8614  0.6895 -0.0508
 2398SOL    HW2 7373   6.121   6.788   1.196  1.4936  1.1939 -0.7146
 2399SOL     OW 7374   1.396   3.046   6.127 -0.4447  0.2637  0.2763
 2399SOL    HW1 7375   1.427   2.955   6.099 -0.7457 -0.3518  1.8286
 2399SOL    HW2 7376   1.453   3.079   6.202 -1.1727  0.7756  0.6106
 2400SOL     OW 7377   4.427   4.022   3.131 -0.3415 -0.1692 -0.1470
 2400SOL    HW1 7378   4.437   3.995   3.035 -0.0296 -0.6414  0.0163
 2400SOL    HW2 7379   4.417   4.122   3.136  1.1639  0.0306 -0.5817
 2401SOL     OW 7380   6.392   7.926   2.665 -0.1010  0.3062  1.0653
 2401SOL    HW1 7381   6.292   7.920   2.667 -0.2068  1.2470 -0.1470
 2401SOL    HW2 7382   6.419   8.015   2.630  1.1093 -0.9737 -1.5534
 2402SOL     OW 7383   8.523   1.785   7.670 -0.1300 -0.0079  0.2939
 2402SOL    HW1 7384   8.453   1.749   7.732 -0.9463  0.8604 -0.0998
 2402SOL    HW2 7385   8.549   1.715   7.605 -1.4923 -0.0038 -0.2842
 2403SOL     OW 7386   3.570   0.222   8.725 -0.1926 -0.1424 -0.9247
 2403SOL    HW1 7387   3.582   0.176   8.637  0.7973  0.5094 -1.1515
 2403SOL    HW2 7388   3.645   0.196   8.786  0.6140  1.4300 -1.1929
 2404SOL     OW 7389   6.499   7.854   0.797 -0.0070 -0.0536 -0.1742
 2404SOL    HW1 7390   6.422   7.901   0.755  0.9308  1.5320 -0.2165
 2404SOL    HW2 7391   6.532   7.907   0.875  1.7810 -0.0113 -0.8894
 2405SOL     OW 7392   2.962   1.987   4.986  0.2425  0.3833 -0.1197
 2405SOL    HW1 7393   2.989   2.081   4.966 -1.2880  0.4485 -2.2263
 2405SOL    HW2 7394   2.873   1.986   5.031  0.1338 -0.0512 -0.3360
 2406SOL     OW 7395   8.017   6.914   0.786 -0.0970  0.5832 -0.2845
 2406SOL    HW1 7396   8.062   6.855   0.853 -0.0896  1.1042  0.1742
 2406SOL    HW2 7397   7.945   6.862   0.740  0.2448  0.0678 -0.2499
 2407SOL     OW 7398   7.773   6.635   1.103  0.4179 -0.6706  0.0632
 2407SOL    HW1 7399   7.701   6.636   1.034 -0.3823  0.9643  0.8674
 2407SOL    HW2 7400   7.756   6.707   1.170  2.7732 -0.2627  0.3084
 2408SOL     OW 7401   1.554   3.877   0.156 -0.3317  0.3314  0.5246
 2408SOL    HW1 7402   1.454   3.878   0.154 -0.3662 -0.8101  1.1591
 2408SOL    HW2 7403   1.585   3.861   0.250  0.4132 -1.1119  0.0626
 2409SOL     OW 7404   5.856   7.222   2.397  0.3755 -0.4472  0.1384
 2409SOL    HW1 7405   5.793   7.227   2.475 -2.0826 -0.9703 -1.6639
 2409SOL    HW2 7406   5.921   7.148   2.410 -2.1375 -2.7560  0.2953
 2410SOL     OW 7407   1.445   1.669   8.048 -0.1876 -0.0197 -0.3210
 2410SOL    HW1 7408   1.392   1.611   7.985 -1.1010  1.7148 -1.2183
 2410SOL    HW2 7409   1.406   1.761   8.049  1.2774  0.6282  1.0055
 2411SOL     OW 7410   5.168   0.220   8.319 -0.2274  0.2817  0.2559
 2411SOL    HW1 7411   5.170   0.205   8.418  0.6578  0.1445  0.2287
 2411SOL    HW2 7412   5.160   0.132   8.272 -0.5143  0.3370  0.1970
 2412SOL     OW 7413   6.762   2.114   7.798  0.3978  0.5596 -0.0249
 2412SOL    HW1 7414   6.762   2.203   7.753  0.5787  0.2726 -0.5947
 2412SOL    HW2 7415   6.774   2.127   7.897  0.4979  1.1599 -0.1116
 2413SOL     OW 7416   2.916   6.502   6.607 -0.2079 -0.0433 -0.3358
 2413SOL    HW1 7417   2.988   6.452   6.655 -0.8905 -0.3456  0.3832
 2413SOL    HW2 7418   2.924   6.600   6.626 -0.7811 -0.2088  0.8274
 2414SOL     OW 7419   6.627   4.473   7.175 -0.0235 -0.3443 -0.0089
 2414SOL    HW1 7420   6.684   4.548   7.142 -0.2285  0.0175  0.4486
 2414SOL    HW2 7421   6.614   4.481   7.273  1.4578 -2.0020  0.3723
 2415SOL     OW 7422   6.957   7.268   5.223 -0.1581 -0.3597  0.4556
 2415SOL    HW1 7423   6.986   7.314   5.140 -0.0027 -0.5104  0.4255
 2415SOL    HW2 7424   6.857   7.275   5.232 -0.0977  0.3274  0.6575
 2416SOL     OW 7425   8.352   7.044   2.437  0.3196 -0.2321  0.1577
 2416SOL    HW1 7426   8.327   7.140   2.452 -0.3052 -0.5731  1.5016
 2416SOL    HW2 7427   8.332   7.018   2.343  0.4251  0.9371 -0.1982
 2417SOL     OW 7428   6.876   1.115   8.348 -0.1958 -0.4631  0.6044
 2417SOL    HW1 7429   6.879   1.136   8.250 -3.2004 -0.2982  0.4530
 2417SOL    HW2 7430   6.950   1.164   8.395 -1.7635  3.8303 -0.8917
 2418SOL     OW 7431   7.898   7.597   0.318  0.6243  0.3603 -0.2200
 2418SOL    HW1 7432   7.919   7.573   0.224 -2.5406 -2.1234 -0.4881
 2418SOL    HW2 7433   7.959   7.548   0.380  1.3318  0.3004 -0.9587
 2419SOL     OW 7434   7.624   2.222   7.305  0.2836  0.3249 -0.5175
 2419SOL    HW1 7435   7.582   2.277   7.378 -1.4931  0.3985 -1.5388
 2419SOL    HW2 7436   7.663   2.139   7.345  0.9718  1.1916  0.7325
 2420SOL     OW 7437   7.724   4.184   1.702  0.0100  0.2308  0.5242
 2420SOL    HW1 7438   7.627   4.209   1.704 -0.2214 -0.6743  2.0275
 2420SOL    HW2 7439   7.778   4.263   1.672 -0.9717  1.6019  2.1890
 2421SOL     OW 7440   6.103   3.169   0.196 -0.3373 -0.1721  0.1237
 2421SOL    HW1 7441   6.033   3.210   0.255 -0.0529 -0.5856  0.7598
 2421SOL    HW2 7442   6.064   3.091   0.148 -0.1508 -0.7980  0.9675
 2422SOL     OW 7443   1.598   2.126   4.883 -0.4779 -0.0212 -0.3529
 2422SOL    HW1 7444   1.534   2.051   4.901 -0.6183  0.2553  0.3290
 2422SOL    HW2 7445   1.551   2.197   4.831  0.0450 -1.0075 -2.2675
 2423SOL     OW 7446   0.521   6.631   7.521  0.3372 -0.8114  0.5734
 2423SOL    HW1 7447   0.481   6.712   7.478  0.0900 -1.5664 -0.6645
 2423SOL    HW2 7448   0.606   6.655   7.568  1.0179 -0.0795 -0.9812
 2424SOL     OW 7449   8.790   0.488   1.729  0.3952  0.0946  0.4118
 2424SOL    HW1 7450   8.840   0.445   1.805 -0.1208 -0.8120  0.2497
 2424SOL    HW2 7451   8.693   0.490   1.750  0.0352 -1.5445 -0.8204
 2425SOL     OW 7452   2.584   2.689   1.620  1.1149  0.1536  0.1441
 2425SOL    HW1 7453   2.522   2.682   1.542  0.8220  0.0524  0.3885
 2425SOL    HW2 7454   2.563   2.618   1.687  0.7817  0.8028  0.7335
 2426SOL     OW 7455   7.841   6.533   3.900 -0.3774 -0.0351  0.0891
 2426SOL    HW1 7456   7.861   6.458   3.963  0.1367 -0.3593 -0.4535
 2426SOL    HW2 7457   7.843   6.620   3.950  0.2411 -0.2693  0.4807
 2427SOL     OW 7458   0.101   6.453   2.888 -0.3268 -0.0199  1.1008
 2427SOL    HW1 7459   0.005   6.451   2.859  0.0595  1.8296 -0.4979
 2427SOL    HW2 7460   0.119   6.538   2.936  1.0276  0.7468 -0.6828
 2428SOL     OW 7461   8.603   4.987   0.262  0.3766  0.6218  0.0006
 2428SOL    HW1 7462   8.624   5.085   0.260  1.0659  0.5427  1.6129
 2428SOL    HW2 7463   8.538   4.969   0.336  0.0877 -0.1302 -0.4248
 2429SOL     OW 7464   7.850   4.737   1.938  0.0869  0.3847  0.3345
 2429SOL    HW1 7465   7.787   4.767   1.866 -0.6380 -1.2308  0.2536
 2429SOL    HW2 7466   7.907   4.814   1.966 -1.2526  1.6534 -0.2749
 2430SOL     OW 7467   8.821   7.288   6.784 -0.4625 -0.5305 -0.2647
 2430SOL    HW1 7468   8.799   7.206   6.730  0.0404 -1.6170  1.1263
 2430SOL    HW2 7469   8.742   7.349   6.786 -0.2586 -0.0278 -2.8844
 2431SOL     OW 7470   5.549   7.869   1.830  0.4052  0.5588 -0.6152
 2431SOL    HW1 7471   5.580   7.847   1.923  0.7833 -1.1699 -1.1184
 2431SOL    HW2 7472   5.472   7.932   1.835  0.5986  0.7116  0.8664
 2432SOL     OW 7473   7.392   3.178   7.581 -0.2802  0.3853  0.0062
 2432SOL    HW1 7474   7.307   3.230   7.571 -0.5196  0.3375  1.5985
 2432SOL    HW2 7475   7.385   3.094   7.527 -0.7450  0.9526 -0.8519
 2433SOL     OW 7476   5.099   5.033   8.480 -0.4665  0.4685 -0.0491
 2433SOL    HW1 7477   5.180   5.033   8.421  0.5702  1.2477  1.2999
 2433SOL    HW2 7478   5.060   5.126   8.483 -3.3835 -0.4554 -3.1539
 2434SOL     OW 7479   7.467   1.862   7.726 -0.3474 -0.5274  0.3025
 2434SOL    HW1 7480   7.441   1.951   7.763  1.0345 -0.6661  1.7266
 2434SOL    HW2 7481   7.417   1.790   7.774 -0.1611 -0.6013  0.3880
 2435SOL     OW 7482   5.483   5.857   0.636  0.3240 -0.7511 -0.2478
 2435SOL    HW1 7483   5.384   5.857   0.650  0.4497  0.4207  0.8093
 2435SOL    HW2 7484   5.529   5.820   0.717  0.8219  0.5946  0.1036
 2436SOL     OW 7485   3.285   5.956   6.478 -0.1694 -0.2484 -0.5220
 2436SOL    HW1 7486   3.366   5.921   6.526 -1.3002 -0.2142  1.5310
 2436SOL    HW2 7487   3.205   5.902   6.505 -0.7570 -0.9123 -3.2433
 2437SOL     OW 7488   1.095   1.901   0.618  0.0193 -0.0527 -0.0597
 2437SOL    HW1 7489   0.999   1.893   0.594 -0.5834 -0.5843  2.3266
 2437SOL    HW2 7490   1.136   1.810   0.620  0.5963  0.1667 -1.0167
 2438SOL     OW 7491   5.338   8.806   1.078  0.0142  0.1984  0.1780
 2438SOL    HW1 7492   5.259   8.782   1.021 -0.4321 -0.3085  0.9851
 2438SOL    HW2 7493   5.417   8.823   1.020 -0.5542  0.1873 -0.6188
 2439SOL     OW 7494   6.650   6.573   2.055 -0.4518  0.8360 -0.0999
 2439SOL    HW1 7495   6.615   6.534   2.140  0.1376  0.7571  0.1063
 2439SOL    HW2 7496   6.679   6.500   1.994  0.6490  0.9437  0.2855
 2440SOL     OW 7497   7.234   7.713   8.757 -0.6228  0.0359  0.1880
 2440SOL    HW1 7498   7.153   7.724   8.814 -1.6417 -3.5127 -0.3217
 2440SOL    HW2 7499   7.312   7.689   8.815 -0.6431  0.4883  0.4104
 2441SOL     OW 7500   2.118   3.588   0.311  0.1282  0.5624  0.3967
 2441SOL    HW1 7501   2.035   3.613   0.263 -0.4178  0.3118  1.1840
 2441SOL    HW2 7502   2.138   3.491   0.295  1.5348  1.1175 -1.6117
 2442SOL     OW 7503   4.362   7.695   8.680 -0.2496 -0.2256  0.0179
 2442SOL    HW1 7504   4.370   7.647   8.767 -0.4202 -0.1578  0.0720
 2442SOL    HW2 7505   4.452   7.701   8.637 -0.2589 -0.7603 -0.0823
 2443SOL     OW 7506   3.275   3.919   0.855 -0.6462 -0.4040 -0.5616
 2443SOL    HW1 7507   3.217   3.850   0.811 -0.4088 -0.1827 -1.2323
 2443SOL    HW2 7508   3.247   3.931   0.951 -1.1218 -0.9430 -0.6335
 2444SOL     OW 7509   2.718   3.787   3.706 -0.8766  0.2272 -0.3048
 2444SOL    HW1 7510   2.678   3.878   3.693 -1.2425 -0.0487 -1.2247
 2444SOL    HW2 7511   2.787   3.771   3.635  1.8017  1.1467  1.9155
 2445SOL     OW 7512   2.393   4.366   4.449  0.4578 -0.1615  0.1442
 2445SOL    HW1 7513   2.408   4.301   4.523  2.0044 -1.5008 -1.2723
 2445SOL    HW2 7514   2.451   4.342   4.371 -2.6275 -0.1903 -2.3722
 2446SOL     OW 7515   5.878   1.142   5.165 -0.0878  0.0413 -0.1221
 2446SOL    HW1 7516   5.903   1.050   5.196  1.3668  0.4535 -0.0087
 2446SOL    HW2 7517   5.884   1.146   5.065  1.4665  0.4310 -0.0400
 2447SOL     OW 7518   3.657   0.427   7.559  0.1656 -0.4775 -0.1139
 2447SOL    HW1 7519   3.687   0.474   7.476  0.5286  0.8488  0.7298
 2447SOL    HW2 7520   3.565   0.458   7.583  0.8871  0.8284  1.1387
 2448SOL     OW 7521   1.942   8.284   5.951 -0.0519  0.0042  0.3585
 2448SOL    HW1 7522   1.924   8.321   5.859  1.4247  0.6895  0.3213
 2448SOL    HW2 7523   1.947   8.359   6.017  0.6163 -0.3322  0.6972
 2449SOL     OW 7524   0.146   5.164   1.971  0.5616  0.3500  0.7388
 2449SOL    HW1 7525   0.087   5.229   1.923  0.1970 -0.5277 -0.0238
 2449SOL    HW2 7526   0.192   5.211   2.047  0.0408  1.4059  0.4222
 2450SOL     OW 7527   2.815   2.126   6.432  0.2373 -0.1789  0.0401
 2450SOL    HW1 7528   2.782   2.211   6.473 -0.6465 -0.0054 -0.9889
 2450SOL    HW2 7529   2.741   2.059   6.431  1.0587 -1.1458  1.2741
 2451SOL     OW 7530   4.625   4.657   5.682 -0.1458 -0.0695 -0.5002
 2451SOL    HW1 7531   4.549   4.716   5.657  0.3087  0.6547 -0.2320
 2451SOL    HW2 7532   4.607   4.614   5.770  0.3007  1.1361  0.2079
 2452SOL     OW 7533   6.460   2.986   7.078 -0.1812  0.6535  0.1060
 2452SOL    HW1 7534   6.558   2.969   7.083 -0.2359  0.3562  0.1730
 2452SOL    HW2 7535   6.433   2.994   6.982 -0.1162  0.6013  0.0834
 2453SOL     OW 7536   1.720   1.592   0.025 -0.1535  0.6419  0.0626
 2453SOL    HW1 7537   1.625   1.617   0.044 -0.6870 -0.6630 -0.7433
 2453SOL    HW2 7538   1.779   1.627   0.098 -1.1429  2.0947  0.2077
 2454SOL     OW 7539   1.002   6.617   6.271 -0.5289  0.4492 -0.1707
 2454SOL    HW1 7540   0.936   6.600   6.198 -0.0618 -1.2733 -0.2408
 2454SOL    HW2 7541   1.001   6.540   6.335  1.1552  0.5555  0.0183
 2455SOL     OW 7542   2.204   4.269   5.251 -0.0792 -0.1304  0.2652
 2455SOL    HW1 7543   2.157   4.356   5.238  1.3547  0.9135  1.6432
 2455SOL    HW2 7544   2.143   4.205   5.298 -1.3110 -0.0805 -1.1732
 2456SOL     OW 7545   2.500   7.594   7.206 -0.4484 -0.2507 -0.7860
 2456SOL    HW1 7546   2.444   7.513   7.195 -0.2900 -0.6698  1.0949
 2456SOL    HW2 7547   2.596   7.571   7.189 -0.4040 -0.4715 -0.2569
 2457SOL     OW 7548   8.662   1.233   4.378 -0.1845 -0.3040 -0.2006
 2457SOL    HW1 7549   8.616   1.231   4.290 -0.4927  0.4775 -0.0628
 2457SOL    HW2 7550   8.611   1.177   4.444 -0.0039 -0.8114 -0.4872
 2458SOL     OW 7551   5.215   3.232   7.836  0.8182  0.0992 -0.5356
 2458SOL    HW1 7552   5.209   3.134   7.820  0.8413 -0.3910  2.0745
 2458SOL    HW2 7553   5.305   3.254   7.875  0.2059  0.8801  0.4811
 2459SOL     OW 7554   2.411   5.992   8.592  0.0272  0.0328 -0.2188
 2459SOL    HW1 7555   2.358   5.936   8.529  0.1654 -0.4153  0.0555
 2459SOL    HW2 7556   2.362   6.078   8.610  1.4024  1.6253 -3.3654
 2460SOL     OW 7557   0.016   8.629   1.789 -0.1113 -0.1515  0.1581
 2460SOL    HW1 7558   0.044   8.722   1.763  0.9829 -0.5483 -0.1294
 2460SOL    HW2 7559  -0.084   8.623   1.786 -0.1290  0.2203 -2.6481
 2461SOL     OW 7560   3.516   0.980   4.970  0.1650  0.7797 -0.3134
 2461SOL    HW1 7561   3.486   0.920   4.895 -0.0356 -1.1425  1.2105
 2461SOL    HW2 7562   3.437   1.008   5.023  0.5081  0.0168  0.6401
 2462SOL     OW 7563   1.726   6.843   5.548 -0.4270  0.0883 -0.3890
 2462SOL    HW1 7564   1.674   6.883   5.472  1.3894  1.9544 -0.7654
 2462SOL    HW2 7565   1.811   6.803   5.512 -0.7047 -1.2549  0.4065
 2463SOL     OW 7566   3.406   5.226   2.289  0.0334 -0.0496 -0.0969
 2463SOL    HW1 7567   3.461   5.244   2.208  1.3386 -1.5150  0.3938
 2463SOL    HW2 7568   3.330   5.164   2.266  0.0720 -0.0146 -0.3131
 2464SOL     OW 7569   3.352   7.208   6.031 -0.4178  0.0249 -0.2018
 2464SOL    HW1 7570   3.389   7.223   5.940  1.6353  1.4227  0.7905
 2464SOL    HW2 7571   3.426   7.186   6.095 -1.5768  0.6264  1.4311
 2465SOL     OW 7572   4.979   4.933   1.503 -0.1783  0.5423  0.3886
 2465SOL    HW1 7573   4.914   4.924   1.427 -0.7954  1.1296  0.8314
 2465SOL    HW2 7574   5.048   5.001   1.480 -0.4419  0.8160  0.4046
 2466SOL     OW 7575   8.509   7.006   5.022  0.7161  0.2165 -0.1770
 2466SOL    HW1 7576   8.552   7.069   4.957  0.1857  1.6911  0.8318
 2466SOL    HW2 7577   8.409   7.017   5.017  0.2323 -3.4562 -2.8099
 2467SOL     OW 7578   5.959   3.816   0.194 -0.3013 -0.2812 -0.7118
 2467SOL    HW1 7579   5.969   3.898   0.137 -1.5559  0.1734 -0.3124
 2467SOL    HW2 7580   6.029   3.750   0.170  0.4250  0.7074 -1.3999
 2468SOL     OW 7581   6.179   3.474   0.740 -0.3453 -0.4156 -0.0129
 2468SOL    HW1 7582   6.230   3.510   0.818 -0.2408 -1.3564  0.3750
 2468SOL    HW2 7583   6.163   3.376   0.754  0.8895 -0.9373 -1.8111
 2469SOL     OW 7584   2.947   1.884   2.271  0.5979 -0.0677  0.4905
 2469SOL    HW1 7585   2.899   1.971   2.255  3.9164  1.4948 -2.1529
 2469SOL    HW2 7586   2.921   1.818   2.201  1.8098  0.6250 -0.6633
 2470SOL     OW 7587   6.787   1.372   1.878 -0.5189 -0.3519  0.3517
 2470SOL    HW1 7588   6.719   1.426   1.928 -0.2131 -0.4550  0.8915
 2470SOL    HW2 7589   6.838   1.315   1.943 -0.0931 -0.4653 -0.0781
 2471SOL     OW 7590   6.316   7.494   4.049  0.0898  0.6058  0.7679
 2471SOL    HW1 7591   6.381   7.420   4.067 -0.6136 -0.2074  0.0264
 2471SOL    HW2 7592   6.261   7.472   3.969 -1.1647  1.2420  1.4250
 2472SOL     OW 7593   3.189   1.059   7.708 -0.9321  0.2243 -0.5000
 2472SOL    HW1 7594   3.216   1.155   7.702  1.2983 -0.2994  0.0694
 2472SOL    HW2 7595   3.185   1.020   7.616  0.3754  0.3434 -0.6307
 2473SOL     OW 7596   5.823   7.145   1.584  0.0117 -0.5700 -0.0105
 2473SOL    HW1 7597   5.753   7.177   1.647 -0.3506 -1.6080  0.1418
 2473SOL    HW2 7598   5.898   7.104   1.636  0.7224  0.4783 -0.1737
 2474SOL     OW 7599   5.595   3.341   7.288  0.0619 -0.2162 -0.3771
 2474SOL    HW1 7600   5.637   3.288   7.362  0.4365 -0.7702 -0.9860
 2474SOL    HW2 7601   5.661   3.354   7.214  0.2038  1.6629  0.0224
 2475SOL     OW 7602   1.761   1.434   2.882  0.3545  0.0518 -0.5330
 2475SOL    HW1 7603   1.681   1.440   2.822  0.3578  1.0567 -0.4591
 2475SOL    HW2 7604   1.734   1.396   2.970 -0.4649  2.0054  0.1306
 2476SOL     OW 7605   6.116   6.752   8.832  0.5503 -0.4910  0.5870
 2476SOL    HW1 7606   6.185   6.735   8.761  1.7391  1.7917  1.0760
 2476SOL    HW2 7607   6.107   6.851   8.845 -0.0882 -0.8316  3.1717
 2477SOL     OW 7608   5.259   8.222   7.780  0.0450 -0.3229 -0.2762
 2477SOL    HW1 7609   5.181   8.208   7.719 -2.2453  0.7887  2.2043
 2477SOL    HW2 7610   5.343   8.231   7.725 -2.1729  3.8347 -3.6289
 2478SOL     OW 7611   5.310   6.030   3.657  0.5659 -0.2309 -0.5854
 2478SOL    HW1 7612   5.366   5.957   3.698 -1.8230 -1.7030  0.2536
 2478SOL    HW2 7613   5.275   6.089   3.730  0.8591  0.5883 -1.0920
 2479SOL     OW 7614   2.156   2.647   8.418 -0.5021 -0.0859 -0.7155
 2479SOL    HW1 7615   2.098   2.570   8.392  0.0474 -0.4532 -0.8614
 2479SOL    HW2 7616   2.245   2.638   8.375  0.8139 -1.2598  2.0428
 2480SOL     OW 7617   3.704   7.289   8.344  0.3114  0.5507  0.3497
 2480SOL    HW1 7618   3.641   7.212   8.358 -0.8228  1.0104 -1.7751
 2480SOL    HW2 7619   3.790   7.255   8.306 -0.3063  0.3242 -0.8984
 2481SOL     OW 7620   5.916   2.640   2.298  0.4346 -0.7731  0.2411
 2481SOL    HW1 7621   5.990   2.580   2.268 -0.8408 -1.4908 -1.6555
 2481SOL    HW2 7622   5.832   2.586   2.308 -0.5985  0.5510 -0.8972
 2482SOL     OW 7623   3.722   1.064   6.016  0.6138 -0.0297 -0.0071
 2482SOL    HW1 7624   3.650   1.120   5.976 -1.7756 -0.7584  2.9488
 2482SOL    HW2 7625   3.731   0.980   5.963  1.5133  1.3531 -2.1790
 2483SOL     OW 7626   4.918   0.842   7.435 -0.0420  0.0647  0.6053
 2483SOL    HW1 7627   5.015   0.867   7.438 -0.0886  0.1588  1.5232
 2483SOL    HW2 7628   4.907   0.762   7.376  0.3886  0.9193 -0.6730
 2484SOL     OW 7629   4.399   7.758   6.876 -0.3962  0.3259 -0.4525
 2484SOL    HW1 7630   4.337   7.778   6.801  0.6908  0.6593 -1.2888
 2484SOL    HW2 7631   4.423   7.843   6.923  0.0888  0.3255 -0.6857
 2485SOL     OW 7632   3.010   5.291   6.586  0.1465 -0.1627  0.1399
 2485SOL    HW1 7633   2.941   5.220   6.597  0.2601 -0.0797  1.6618
 2485SOL    HW2 7634   3.099   5.249   6.570  0.5495 -0.5142  2.8452
 2486SOL     OW 7635   6.645   2.703   8.732  0.1511 -0.1476 -0.1742
 2486SOL    HW1 7636   6.550   2.700   8.761  0.1293  0.2826 -0.1905
 2486SOL    HW2 7637   6.670   2.798   8.709  0.2128 -0.4525 -1.4080
 2487SOL     OW 7638   4.570   5.005   8.219 -0.0498  0.4688  0.2673
 2487SOL    HW1 7639   4.521   5.013   8.132  0.8810  1.1487 -0.2082
 2487SOL    HW2 7640   4.542   4.921   8.265  0.8900 -0.9613 -1.6314
 2488SOL     OW 7641   0.902   3.106   2.786 -0.3883 -0.0628 -0.0472
 2488SOL    HW1 7642   0.833   3.041   2.818  1.0224 -0.3866  2.6110
 2488SOL    HW2 7643   0.877   3.198   2.816  0.4503 -0.2313  1.2485
 2489SOL     OW 7644   0.893   6.253   3.957  0.2260 -0.1035 -0.2538
 2489SOL    HW1 7645   0.972   6.256   3.896  0.7756  0.4218  0.4764
 2489SOL    HW2 7646   0.812   6.224   3.905  0.9739 -1.0594 -0.9072
 2490SOL     OW 7647   7.215   7.358   2.288  0.1073  0.3787  0.3209
 2490SOL    HW1 7648   7.150   7.350   2.212  0.0213 -0.9468  0.5106
 2490SOL    HW2 7649   7.175   7.319   2.370  1.3251 -0.9522  0.3171
 2491SOL     OW 7650   0.697   7.607   8.482  0.2323 -0.7443 -0.2044
 2491SOL    HW1 7651   0.615   7.634   8.532 -0.1031 -3.1283  0.6598
 2491SOL    HW2 7652   0.771   7.672   8.500 -0.3592 -0.6450  2.1316
 2492SOL     OW 7653   7.009   5.316   3.008 -0.4513  0.0109  0.2292
 2492SOL    HW1 7654   6.990   5.244   3.075  0.9322 -2.6481 -1.9883
 2492SOL    HW2 7655   7.108   5.331   3.003 -0.5276  0.2115 -1.0980
 2493SOL     OW 7656   5.607   3.999   5.260  0.2427 -0.3394  0.0815
 2493SOL    HW1 7657   5.620   3.990   5.359 -2.4736 -1.9358  0.3822
 2493SOL    HW2 7658   5.589   4.095   5.238 -0.5226 -0.1582  1.3680
 2494SOL     OW 7659   4.584   5.102   5.604  0.4809 -0.6148 -0.1497
 2494SOL    HW1 7660   4.521   5.130   5.531  0.3445  1.3499  0.6607
 2494SOL    HW2 7661   4.674   5.083   5.565  0.3474  0.1832 -0.8878
 2495SOL     OW 7662   3.617   7.476   4.211  0.3893 -0.0989  0.2328
 2495SOL    HW1 7663   3.588   7.382   4.227  1.5028 -0.7420 -1.2339
 2495SOL    HW2 7664   3.695   7.476   4.147 -2.0731  1.9736 -3.1091
 2496SOL     OW 7665   0.813   0.477   0.360 -1.0208 -0.3339  0.0426
 2496SOL    HW1 7666   0.780   0.535   0.285 -1.7091  0.9476  1.2794
 2496SOL    HW2 7667   0.840   0.388   0.324 -1.2905  0.2540 -1.7234
 2497SOL     OW 7668   5.819   7.351   4.939 -0.2241 -0.1394 -1.0145
 2497SOL    HW1 7669   5.831   7.449   4.924 -1.4886  0.0365 -0.9557
 2497SOL    HW2 7670   5.888   7.300   4.888  0.1847  0.7653 -1.3665
 2498SOL     OW 7671   4.157   1.911   8.859  0.3420 -0.0137 -0.0329
 2498SOL    HW1 7672   4.242   1.859   8.867 -0.6803 -1.6880  0.2907
 2498SOL    HW2 7673   4.080   1.856   8.891 -0.8217  1.6684  0.2192
 2499SOL     OW 7674   8.759   2.807   4.027 -0.1702 -0.3431 -0.0200
 2499SOL    HW1 7675   8.692   2.861   3.976 -0.4237 -2.1482 -1.7106
 2499SOL    HW2 7676   8.712   2.736   4.078  0.3134 -0.2158  0.6179
 2500SOL     OW 7677   6.162   8.316   5.011 -0.2845  0.5984  0.1332
 2500SOL    HW1 7678   6.063   8.301   5.020 -0.1367  0.3335  1.6552
 2500SOL    HW2 7679   6.185   8.408   5.041 -0.0783  0.7132 -0.3675
 2501SOL     OW 7680   4.958   3.597   6.257  0.3299  0.2223 -0.0792
 2501SOL    HW1 7681   5.025   3.646   6.202  1.9831 -1.0491  0.7309
 2501SOL    HW2 7682   4.997   3.572   6.345 -2.2642  2.2188  1.7952
 2502SOL     OW 7683   0.538   8.741   3.048  0.1554  0.4149 -0.0925
 2502SOL    HW1 7684   0.448   8.745   3.006 -0.7402 -0.6757  1.6248
 2502SOL    HW2 7685   0.574   8.648   3.043  0.5228  0.5145  0.5185
 2503SOL     OW 7686   1.296   0.224   4.125 -0.0491 -0.1463 -0.1374
 2503SOL    HW1 7687   1.384   0.184   4.153 -0.4527 -2.4455 -1.8429
 2503SOL    HW2 7688   1.224   0.192   4.187  0.1509  1.1340  0.8046
 2504SOL     OW 7689   8.091   5.218   2.104 -0.6590  0.1130  0.2189
 2504SOL    HW1 7690   8.001   5.246   2.139 -0.7797  0.6448 -0.4905
 2504SOL    HW2 7691   8.158   5.223   2.178 -0.9320  1.0943  0.4154
 2505SOL     OW 7692   6.047   7.835   4.939 -0.2896  0.6975 -0.5455
 2505SOL    HW1 7693   6.145   7.835   4.956 -0.4192 -0.1821  0.2596
 2505SOL    HW2 7694   6.029   7.873   4.848  0.7910  0.8767 -0.6926
 2506SOL     OW 7695   0.773   5.306   8.679 -0.1409  0.1988 -0.0298
 2506SOL    HW1 7696   0.829   5.387   8.695  0.7309 -0.4054  0.0835
 2506SOL    HW2 7697   0.698   5.304   8.745 -1.3624  1.9238 -1.2850
 2507SOL     OW 7698   6.047   0.126   4.969  0.3494  0.4148 -0.3563
 2507SOL    HW1 7699   5.959   0.078   4.968  0.2460  0.5403  0.6828
 2507SOL    HW2 7700   6.031   0.224   4.970  0.3989  0.4562  1.7071
 2508SOL     OW 7701   6.710   8.790   5.768  0.3522 -0.0520  0.0984
 2508SOL    HW1 7702   6.751   8.815   5.681  0.3388  0.1364  0.1453
 2508SOL    HW2 7703   6.772   8.816   5.843  1.0285 -1.5317  0.0843
 2509SOL     OW 7704   6.876   4.945   8.650  0.3229 -0.2526 -0.6850
 2509SOL    HW1 7705   6.879   5.041   8.620 -3.4224 -0.3736 -2.0072
 2509SOL    HW2 7706   6.856   4.942   8.748  2.4569  0.2091 -0.1773
 2510SOL     OW 7707   6.321   7.831   4.985 -0.6919 -0.0793 -0.0002
 2510SOL    HW1 7708   6.342   7.797   5.076 -2.0036 -1.1532 -0.0627
 2510SOL    HW2 7709   6.405   7.843   4.933 -0.0705 -1.6178  0.6075
 2511SOL     OW 7710   7.753   3.463   6.842 -0.2756 -0.1449  0.2773
 2511SOL    HW1 7711   7.759   3.497   6.748 -0.4656  0.5057  0.4973
 2511SOL    HW2 7712   7.825   3.394   6.856  0.1481  0.1961 -0.1600
 2512SOL     OW 7713   8.816   6.121   4.211  0.8664  0.0814 -0.5818
 2512SOL    HW1 7714   8.847   6.050   4.274  1.8144 -0.3277 -1.4775
 2512SOL    HW2 7715   8.785   6.078   4.126  0.6355  0.6927 -0.8122
 2513SOL     OW 7716   8.205   1.735   1.928 -0.2457 -0.3183 -0.7531
 2513SOL    HW1 7717   8.295   1.765   1.895  0.9945 -1.7093  1.1329
 2513SOL    HW2 7718   8.209   1.638   1.953 -1.5813  0.1372  1.5494
 2514SOL     OW 7719   4.474   1.096   4.927  0.1316 -0.0358 -0.4357
 2514SOL    HW1 7720   4.479   1.163   5.001 -0.4041  0.8646 -1.1967
 2514SOL    HW2 7721   4.389   1.044   4.935 -0.5575  0.9522 -1.1466
 2515SOL     OW 7722   1.548   1.337   0.287  0.3422 -0.9298  0.1493
 2515SOL    HW1 7723   1.493   1.339   0.204 -0.5839 -0.5692  0.7535
 2515SOL    HW2 7724   1.505   1.276   0.354  0.7638 -0.7647  0.5768
 2516SOL     OW 7725   4.860   6.496   7.748  0.5008  0.4628  0.1566
 2516SOL    HW1 7726   4.912   6.414   7.773 -0.5008  0.3205  1.9619
 2516SOL    HW2 7727   4.901   6.539   7.668  1.5357 -1.3442 -0.3320
 2517SOL     OW 7728   6.216   6.604   3.314 -0.1885  0.2384  0.1806
 2517SOL    HW1 7729   6.194   6.599   3.216 -2.3494  1.4558  0.5378
 2517SOL    HW2 7730   6.293   6.667   3.327 -1.0401  1.5074 -0.6327
 2518SOL     OW 7731   7.089   8.529   3.961  0.4715 -0.3302  0.1124
 2518SOL    HW1 7732   7.002   8.528   3.912  0.8572  0.0881 -0.6051
 2518SOL    HW2 7733   7.139   8.445   3.943 -0.5276 -1.3998  1.9624
 2519SOL     OW 7734   6.796   4.314   0.059 -0.3998 -0.2241  0.0119
 2519SOL    HW1 7735   6.782   4.261   0.143  2.0067 -2.5464 -0.9071
 2519SOL    HW2 7736   6.760   4.263  -0.018  1.3572 -0.2581 -0.8332
 2520SOL     OW 7737   6.562   8.030   3.578 -0.0785  0.6157 -0.0202
 2520SOL    HW1 7738   6.476   7.985   3.602  0.3283 -0.5347 -0.6398
 2520SOL    HW2 7739   6.543   8.104   3.513 -0.8301  1.8228  1.5140
 2521SOL     OW 7740   5.903   3.937   3.347 -0.8384  0.5959 -0.3416
 2521SOL    HW1 7741   5.997   3.910   3.328 -0.6624 -1.3476  2.6674
 2521SOL    HW2 7742   5.844   3.856   3.342 -1.2844  0.5375  3.4871
 2522SOL     OW 7743   4.680   0.068   5.820 -0.8309 -0.3619 -0.0524
 2522SOL    HW1 7744   4.710   0.129   5.746 -2.7817 -0.2907 -0.8564
 2522SOL    HW2 7745   4.595   0.104   5.860 -0.2785 -0.8760  1.6503
 2523SOL     OW 7746   6.137   2.007   6.637 -0.3351 -0.4360 -0.3862
 2523SOL    HW1 7747   6.188   1.976   6.557  0.1396  1.6522 -0.9535
 2523SOL    HW2 7748   6.186   1.980   6.720  0.6036 -0.2669 -0.8740
 2524SOL     OW 7749   7.732   1.953   7.349  0.4843 -0.4379 -0.0699
 2524SOL    HW1 7750   7.684   1.896   7.416  0.4519 -0.5036 -0.1487
 2524SOL    HW2 7751   7.827   1.965   7.378  0.6234 -0.9438 -0.3058
 2525SOL     OW 7752   3.615   7.987   0.840 -0.0270  0.0113 -0.3043
 2525SOL    HW1 7753   3.568   8.076   0.833 -1.5867 -0.7290  0.2446
 2525SOL    HW2 7754   3.548   7.914   0.833  1.4217 -1.2090 -2.2608
 2526SOL     OW 7755   6.518   6.112   8.484 -0.0268  0.1881  0.5376
 2526SOL    HW1 7756   6.453   6.038   8.467  1.1684 -0.9881  0.9462
 2526SOL    HW2 7757   6.549   6.150   8.396 -0.3714 -0.0313  0.3206
 2527SOL     OW 7758   3.933   2.334   8.685  0.3639  0.5650 -0.6470
 2527SOL    HW1 7759   3.953   2.326   8.783  2.0457  1.8692 -0.8373
 2527SOL    HW2 7760   3.888   2.251   8.653 -0.9574  0.4074  1.3785
 2528SOL     OW 7761   6.469   8.722   7.970  0.2066 -0.2215 -0.2643
 2528SOL    HW1 7762   6.451   8.819   7.959  1.3670  0.0905  0.4000
 2528SOL    HW2 7763   6.464   8.676   7.881  0.3834  0.5825 -0.6930
 2529SOL     OW 7764   2.120   1.345   6.942 -0.1165  0.9006 -0.3503
 2529SOL    HW1 7765   2.060   1.423   6.921  0.1152  0.8987 -1.0564
 2529SOL    HW2 7766   2.064   1.267   6.969 -0.4847  0.7440 -1.4997
 2530SOL     OW 7767   4.517   7.213   1.462 -0.1129 -0.3132 -0.1050
 2530SOL    HW1 7768   4.487   7.196   1.368 -1.0274 -0.3328  0.1751
 2530SOL    HW2 7769   4.574   7.294   1.464 -0.7473  0.1575 -0.5678
 2531SOL     OW 7770   6.755   1.028   7.591  0.1467  0.1019  0.1626
 2531SOL    HW1 7771   6.833   1.059   7.537  0.0394 -0.1660 -0.1513
 2531SOL    HW2 7772   6.776   0.940   7.634  1.0112  1.2753  2.2809
 2532SOL     OW 7773   5.101   1.483   2.315 -0.1472 -0.6182  0.2803
 2532SOL    HW1 7774   5.098   1.556   2.384  0.5795  0.1200 -0.4281
 2532SOL    HW2 7775   5.161   1.410   2.347  1.8449  0.6389 -0.3549
 2533SOL     OW 7776   8.241   2.555   5.732 -0.9736  0.5478  0.4784
 2533SOL    HW1 7777   8.191   2.599   5.658 -0.5680 -0.3661 -0.3549
 2533SOL    HW2 7778   8.215   2.458   5.737  0.2264  0.2073  0.4363
 2534SOL     OW 7779   7.374   1.229   4.507  0.1013 -0.4836 -0.2058
 2534SOL    HW1 7780   7.278   1.258   4.501 -0.1902 -1.3955 -0.1007
 2534SOL    HW2 7781   7.385   1.166   4.584  1.5737  2.5856  2.3374
 2535SOL     OW 7782   2.650   4.451   6.419 -0.1484 -0.4675 -0.8642
 2535SOL    HW1 7783   2.739   4.480   6.386  0.1841 -0.0506  0.3363
 2535SOL    HW2 7784   2.578   4.504   6.373  0.3049  0.2240 -0.7873
 2536SOL     OW 7785   6.502   6.178   4.135  0.0841  0.3416  0.9920
 2536SOL    HW1 7786   6.514   6.198   4.233  0.0526  0.8412  0.8966
 2536SOL    HW2 7787   6.466   6.086   4.125 -0.3982  0.4662  1.4795
 2537SOL     OW 7788   8.583   4.468   3.502 -0.2728  0.0726 -0.0823
 2537SOL    HW1 7789   8.653   4.536   3.487 -0.4287  0.3244  0.3025
 2537SOL    HW2 7790   8.505   4.486   3.442 -0.8208  0.9632  0.8573
 2538SOL     OW 7791   4.204   2.846   0.957  0.0106 -0.1478  0.4124
 2538SOL    HW1 7792   4.230   2.865   0.863 -2.4126  0.2542 -0.2440
 2538SOL    HW2 7793   4.263   2.898   1.019  0.4467  1.0533 -0.9468
 2539SOL     OW 7794   4.451   7.386   6.943  0.9071  0.0767  0.3919
 2539SOL    HW1 7795   4.511   7.305   6.940 -0.9434 -1.3435 -1.1541
 2539SOL    HW2 7796   4.500   7.464   6.905  2.6417 -0.3362  1.6110
 2540SOL     OW 7797   1.539   6.453   8.267 -0.2727  0.1720 -0.3376
 2540SOL    HW1 7798   1.468   6.505   8.219 -1.0829  0.7255  1.3765
 2540SOL    HW2 7799   1.514   6.356   8.267 -0.7911  0.2974 -0.1907
 2541SOL     OW 7800   6.567   2.751   4.356 -0.5935  0.7975 -0.1005
 2541SOL    HW1 7801   6.665   2.739   4.340 -0.4105  0.9899  0.8464
 2541SOL    HW2 7802   6.529   2.810   4.285 -0.0944  0.4571 -0.6599
 2542SOL     OW 7803   1.279   4.742   3.131  0.1216 -0.2522 -0.4376
 2542SOL    HW1 7804   1.371   4.727   3.166 -0.1960 -0.8775  0.1525
 2542SOL    HW2 7805   1.228   4.656   3.133 -1.1908  0.4987  1.3446
 2543SOL     OW 7806   6.514   5.792   8.718  0.2816  0.1335 -0.5086
 2543SOL    HW1 7807   6.453   5.857   8.763  0.0533  0.7963 -1.7270
 2543SOL    HW2 7808   6.607   5.830   8.716  0.0845  0.5987 -1.5128
 2544SOL     OW 7809   4.094   2.753   2.009 -0.3544 -0.3217 -0.8556
 2544SOL    HW1 7810   4.026   2.777   1.940 -0.5044 -1.2081 -1.0225
 2544SOL    HW2 7811   4.147   2.835   2.033 -1.1614  0.2751 -1.0599
 2545SOL     OW 7812   7.914   3.293   4.307  0.6119 -0.1757 -0.1874
 2545SOL    HW1 7813   7.912   3.201   4.345 -0.2601 -0.5542 -1.1055
 2545SOL    HW2 7814   7.915   3.360   4.382  1.1185 -0.9172  0.4850
 2546SOL     OW 7815   2.923   3.351   6.108 -0.1843  0.3944 -0.0403
 2546SOL    HW1 7816   2.929   3.259   6.070 -2.2756  0.4076 -0.5260
 2546SOL    HW2 7817   2.986   3.359   6.186 -0.5243 -1.6916  0.5174
 2547SOL     OW 7818   8.806   8.148   2.646  0.5158 -0.2863  0.1502
 2547SOL    HW1 7819   8.807   8.051   2.621 -1.3380  0.0840 -1.6976
 2547SOL    HW2 7820   8.793   8.203   2.563 -2.3911  1.2930  1.5016
 2548SOL     OW 7821   1.674   0.984   4.040 -0.3699 -0.3114 -0.2711
 2548SOL    HW1 7822   1.588   1.010   3.996 -0.1742 -0.2881 -0.6404
 2548SOL    HW2 7823   1.701   1.056   4.105 -0.6603 -0.3487 -0.1076
 2549SOL     OW 7824   8.216   1.324   0.089  0.4493 -0.4971  0.1539
 2549SOL    HW1 7825   8.301   1.287   0.126 -0.0127 -2.3937 -0.5508
 2549SOL    HW2 7826   8.151   1.249   0.075 -0.8273  0.7228 -0.6516
 2550SOL     OW 7827   7.602   1.715   4.268 -0.1070  0.6741 -0.0743
 2550SOL    HW1 7828   7.677   1.776   4.294  0.3509  0.0950 -0.0206
 2550SOL    HW2 7829   7.595   1.641   4.335 -0.4481  0.4878 -0.3177
 2551SOL     OW 7830   8.679   4.036   6.474  0.2133 -0.4681  0.5630
 2551SOL    HW1 7831   8.730   4.121   6.484 -0.3305  0.0812 -1.0462
 2551SOL    HW2 7832   8.688   4.002   6.380 -2.7051 -0.0593  0.0185
 2552SOL     OW 7833   2.887   7.772   6.690 -0.0231 -0.0127 -0.5831
 2552SOL    HW1 7834   2.979   7.750   6.721  0.3506  0.3428 -1.4091
 2552SOL    HW2 7835   2.820   7.719   6.743  0.4675  1.6512  1.8625
 2553SOL     OW 7836   2.607   1.203   7.372  0.1450 -0.5526  0.1143
 2553SOL    HW1 7837   2.547   1.282   7.377 -2.1921 -2.0678 -1.6078
 2553SOL    HW2 7838   2.578   1.144   7.296  1.8614 -2.9987  1.2234
 2554SOL     OW 7839   6.768   7.072   1.115  0.5487  0.1428  0.1789
 2554SOL    HW1 7840   6.812   6.984   1.134  0.8693  0.4963  1.1590
 2554SOL    HW2 7841   6.669   7.064   1.126  0.3252 -0.6192 -1.8833
 2555SOL     OW 7842   2.320   1.316   5.038  0.4684 -0.5366 -0.3220
 2555SOL    HW1 7843   2.389   1.374   5.082  1.1892 -0.0624 -1.9909
 2555SOL    HW2 7844   2.365   1.248   4.981 -0.3820  0.5679 -2.4398
 2556SOL     OW 7845   8.786   4.176   5.272 -0.2965 -0.0639 -0.3156
 2556SOL    HW1 7846   8.856   4.144   5.336 -0.4466  0.5636  0.1731
 2556SOL    HW2 7847   8.753   4.099   5.217  0.9133 -0.3262 -0.6909
 2557SOL     OW 7848   7.716   4.167   0.970  0.1109 -0.3363  0.2592
 2557SOL    HW1 7849   7.657   4.088   0.984  0.0980 -0.2830  0.5285
 2557SOL    HW2 7850   7.663   4.243   0.934  0.1001 -0.4186  0.1040
 2558SOL     OW 7851   5.330   0.635   4.995  0.0871 -0.0630 -0.0438
 2558SOL    HW1 7852   5.384   0.567   4.946  0.6438  0.1736  0.2352
 2558SOL    HW2 7853   5.339   0.724   4.950  0.9827  0.2635  0.7269
 2559SOL     OW 7854   2.543   2.904   5.421 -0.2134 -0.3406 -0.3148
 2559SOL    HW1 7855   2.605   2.982   5.428 -1.3642  0.4843  1.3434
 2559SOL    HW2 7856   2.453   2.929   5.457 -1.5769 -1.4818 -2.6987
 2560SOL     OW 7857   7.381   3.504   4.586  0.2727 -0.4369  0.3264
 2560SOL    HW1 7858   7.418   3.571   4.650  0.5857  0.2134 -0.5078
 2560SOL    HW2 7859   7.456   3.451   4.546  0.1889 -0.1254 -0.2636
 2561SOL     OW 7860   6.602   2.410   6.993 -0.5908 -0.7630 -0.4215
 2561SOL    HW1 7861   6.664   2.399   7.071 -1.8138  0.4785  0.7831
 2561SOL    HW2 7862   6.656   2.422   6.910  0.7664 -0.8695  0.4014
 2562SOL     OW 7863   3.692   7.035   3.944 -0.2964  0.7969 -0.6277
 2562SOL    HW1 7864   3.688   7.108   3.875  1.2273  1.3364 -0.1981
 2562SOL    HW2 7865   3.700   7.075   4.035 -1.4356  0.0803 -0.1981
 2563SOL     OW 7866   7.474   0.304   5.920 -0.4417  0.1685 -0.0183
 2563SOL    HW1 7867   7.433   0.266   5.837 -3.6840  1.9005  0.6272
 2563SOL    HW2 7868   7.532   0.235   5.962 -4.3733 -3.5680  0.0519
 2564SOL     OW 7869   3.042   6.348   3.403 -0.3182 -0.3796 -0.1492
 2564SOL    HW1 7870   3.032   6.426   3.341 -0.4439  0.4105  0.8345
 2564SOL    HW2 7871   2.971   6.351   3.472 -0.0177 -1.0931  0.2015
 2565SOL     OW 7872   6.079   7.838   6.717  0.1150 -0.0336 -0.7043
 2565SOL    HW1 7873   6.097   7.771   6.788 -0.0778 -0.1887 -0.8028
 2565SOL    HW2 7874   5.998   7.811   6.664 -1.8924  1.8430  1.2056
 2566SOL     OW 7875   0.840   2.405   6.512 -0.3682  0.6199 -0.0295
 2566SOL    HW1 7876   0.857   2.502   6.491 -0.6766  0.7263  0.2141
 2566SOL    HW2 7877   0.842   2.392   6.611 -2.9025  0.8701  0.1089
 2567SOL     OW 7878   3.813   8.414   1.299  0.2343  0.1373 -0.2413
 2567SOL    HW1 7879   3.792   8.403   1.396 -0.3974 -0.4011 -0.4274
 2567SOL    HW2 7880   3.904   8.453   1.289  0.5705 -0.4006  0.5602
 2568SOL     OW 7881   5.636   6.459   2.150 -0.9311 -0.2027  0.0526
 2568SOL    HW1 7882   5.621   6.463   2.249 -0.8869  0.3222  0.0404
 2568SOL    HW2 7883   5.734   6.464   2.131 -1.0139  1.7039 -0.0897
 2569SOL     OW 7884   6.887   0.064   0.717  0.3423  0.2131 -0.0879
 2569SOL    HW1 7885   6.794   0.034   0.737 -0.4181  2.7957  0.6636
 2569SOL    HW2 7886   6.944  -0.015   0.695 -1.9280 -1.4724 -0.2666
 2570SOL     OW 7887   7.349   4.779   0.335  0.2372  0.0015  0.1363
 2570SOL    HW1 7888   7.289   4.840   0.387 -0.2888 -1.0777  0.8193
 2570SOL    HW2 7889   7.329   4.787   0.238 -2.2426 -1.5524  0.4276
 2571SOL     OW 7890   7.660   6.440   4.859 -0.0599  0.0637  0.6168
 2571SOL    HW1 7891   7.575   6.440   4.912 -0.9258  0.5999 -0.6958
 2571SOL    HW2 7892   7.647   6.497   4.777  1.3675 -0.3622  0.0761
 2572SOL     OW 7893   5.203   4.319   4.369 -0.3074 -0.3905  0.1816
 2572SOL    HW1 7894   5.143   4.309   4.448  0.0155 -1.0422  0.3551
 2572SOL    HW2 7895   5.168   4.391   4.309 -1.6084 -1.1882 -0.0440
 2573SOL     OW 7896   5.379   8.219   2.009  0.0011  0.2924 -0.2090
 2573SOL    HW1 7897   5.289   8.175   2.005 -0.9490  2.0726  0.5369
 2573SOL    HW2 7898   5.384   8.289   1.938  1.1262 -0.3355 -0.7668
 2574SOL     OW 7899   6.348   5.388   7.750  0.4893 -0.2039 -0.0122
 2574SOL    HW1 7900   6.275   5.320   7.740  1.1424 -1.3666  2.4925
 2574SOL    HW2 7901   6.434   5.350   7.717  0.5588  0.0041 -0.0736
 2575SOL     OW 7902   1.999   6.557   6.417 -0.0618  0.0281 -0.3549
 2575SOL    HW1 7903   1.950   6.530   6.499 -0.9313 -0.7484 -1.1037
 2575SOL    HW2 7904   2.051   6.479   6.382  1.0570  0.6134 -0.0317
 2576SOL     OW 7905   4.833   7.461   3.382 -0.0729  0.2806 -0.0529
 2576SOL    HW1 7906   4.859   7.374   3.339 -0.8370 -0.0224  0.0878
 2576SOL    HW2 7907   4.791   7.520   3.313 -2.0774 -0.5299  0.4181
 2577SOL     OW 7908   0.124   0.721   7.959  0.2148  0.1766 -0.1405
 2577SOL    HW1 7909   0.183   0.799   7.938  2.1672 -1.2569 -0.3247
 2577SOL    HW2 7910   0.120   0.708   8.058 -0.0686  0.4684 -0.1118
 2578SOL     OW 7911   4.604   2.324   2.353  0.1575 -0.2764 -0.3692
 2578SOL    HW1 7912   4.639   2.407   2.308  1.6699 -0.8257 -0.2756
 2578SOL    HW2 7913   4.522   2.292   2.305 -0.7191  1.4966 -0.1376
 2579SOL     OW 7914   5.587   0.342   5.570 -0.1416  0.3968  0.3030
 2579SOL    HW1 7915   5.529   0.417   5.602 -0.6780 -0.2287  0.8263
 2579SOL    HW2 7916   5.546   0.255   5.597 -0.1170 -0.1305 -1.2587
 2580SOL     OW 7917   7.614   6.774   2.902 -0.1294 -0.0247  0.5067
 2580SOL    HW1 7918   7.521   6.743   2.883 -0.4789  1.8935 -1.2407
 2580SOL    HW2 7919   7.613   6.837   2.980 -0.2788 -0.1064  0.5714
 2581SOL     OW 7920   7.944   7.460   7.781 -0.3041  0.1603 -0.0726
 2581SOL    HW1 7921   7.872   7.523   7.754  1.0533  0.5630 -3.1467
 2581SOL    HW2 7922   7.909   7.366   7.783 -1.1723  0.4761 -0.3945
 2582SOL     OW 7923   4.885   8.562   0.911  1.2321  0.2276 -1.2466
 2582SOL    HW1 7924   4.967   8.585   0.858  2.4883 -0.1526  0.4540
 2582SOL    HW2 7925   4.899   8.586   1.007  0.9210 -3.3321 -0.1455
 2583SOL     OW 7926   0.027   7.083   2.719 -0.4593 -0.2069 -0.3067
 2583SOL    HW1 7927   0.089   7.011   2.750 -2.7326 -1.7218  1.0547
 2583SOL    HW2 7928  -0.054   7.041   2.678 -1.9971  1.5486  0.7980
 2584SOL     OW 7929   8.575   3.523   3.048  0.2572  0.3846  0.5066
 2584SOL    HW1 7930   8.530   3.602   3.007  0.7311  1.5433  2.1239
 2584SOL    HW2 7931   8.671   3.543   3.063  0.6302 -0.9054  0.0070
 2585SOL     OW 7932   6.809   1.812   6.528  0.1771 -0.1928 -0.1712
 2585SOL    HW1 7933   6.905   1.841   6.520 -0.0079  0.6182  0.4136
 2585SOL    HW2 7934   6.798   1.756   6.610  0.3544 -1.2145 -0.8245
 2586SOL     OW 7935   2.314   7.001   5.039  0.2263  0.0224 -0.3958
 2586SOL    HW1 7936   2.345   6.933   5.106  0.4573  0.2373 -0.2814
 2586SOL    HW2 7937   2.290   6.956   4.953  1.1380 -0.1213 -0.5804
 2587SOL     OW 7938   4.028   1.483   4.132  0.3609  0.1140 -0.1901
 2587SOL    HW1 7939   4.060   1.389   4.144 -0.2882 -0.3311 -1.6779
 2587SOL    HW2 7940   4.003   1.522   4.221  3.6357  0.0330  0.8778
 2588SOL     OW 7941   0.398   7.645   3.593  0.3446  0.3321 -0.0158
 2588SOL    HW1 7942   0.463   7.579   3.556  0.0604 -1.7003  2.7739
 2588SOL    HW2 7943   0.306   7.622   3.560  0.2786 -0.6124  0.7595
 2589SOL     OW 7944   4.518   7.086   3.100 -0.1256  0.1818  0.3854
 2589SOL    HW1 7945   4.509   7.185   3.087 -1.4995  0.3530  2.2346
 2589SOL    HW2 7946   4.614   7.061   3.103  0.2409  1.3286 -0.8554
 2590SOL     OW 7947   3.150   4.845   2.530  0.4298  0.3001  0.1121
 2590SOL    HW1 7948   3.117   4.756   2.561  2.1607 -0.3815  0.0929
 2590SOL    HW2 7949   3.125   4.859   2.435  0.6365 -0.4110 -0.0458
 2591SOL     OW 7950   4.798   7.747   7.257  0.1931  0.2874 -0.1880
 2591SOL    HW1 7951   4.799   7.677   7.185  0.4341  0.1548 -0.0559
 2591SOL    HW2 7952   4.725   7.813   7.238 -1.1855 -0.9548  0.5957
 2592SOL     OW 7953   3.743   3.660   0.988 -0.3827 -1.0301 -0.7793
 2592SOL    HW1 7954   3.670   3.714   0.946  1.0067 -0.1258 -2.1480
 2592SOL    HW2 7955   3.801   3.720   1.043 -0.9486 -1.8386  0.7435
 2593SOL     OW 7956   5.931   2.436   1.672  0.3042 -0.5137  0.1709
 2593SOL    HW1 7957   5.995   2.507   1.641  1.3410 -1.8317 -0.8026
 2593SOL    HW2 7958   5.969   2.346   1.653 -2.0429 -1.3594 -0.8763
 2594SOL     OW 7959   7.747   3.012   6.431 -0.2769  0.1707 -0.4375
 2594SOL    HW1 7960   7.784   3.057   6.351  1.1655  0.4047  0.3242
 2594SOL    HW2 7961   7.649   3.031   6.439 -0.1666  1.2076 -1.4109
 2595SOL     OW 7962   5.862   6.556   5.369  0.2572  0.6484 -0.3522
 2595SOL    HW1 7963   5.824   6.575   5.459 -0.7095 -0.8117 -0.4104
 2595SOL    HW2 7964   5.798   6.589   5.298 -0.2960 -0.5899 -0.4585
 2596SOL     OW 7965   1.418   3.840   4.015 -0.2374  0.5649 -0.8905
 2596SOL    HW1 7966   1.435   3.809   3.922 -0.8210 -1.0049 -0.4954
 2596SOL    HW2 7967   1.505   3.860   4.060  0.0221  2.1352 -1.9921
 2597SOL     OW 7968   4.967   7.436   1.479 -0.3014 -0.5499  0.3411
 2597SOL    HW1 7969   4.922   7.470   1.561  1.2115  1.5656  0.3671
 2597SOL    HW2 7970   5.022   7.356   1.502 -1.6476 -1.3598  0.8810
 2598SOL     OW 7971   5.816   4.069   4.699 -0.0122 -0.0992 -0.7468
 2598SOL    HW1 7972   5.754   3.994   4.675  0.6015 -0.9465  0.2447
 2598SOL    HW2 7973   5.862   4.048   4.785 -0.1413  1.6263 -0.2253
 2599SOL     OW 7974   3.321   3.221   5.871 -0.1742  0.5101  0.0028
 2599SOL    HW1 7975   3.287   3.298   5.817  1.3632  0.1767 -1.5157
 2599SOL    HW2 7976   3.356   3.255   5.958  1.2948  1.7169 -0.9955
 2600SOL     OW 7977   1.345   0.303   3.046 -0.5759 -0.9750  0.1854
 2600SOL    HW1 7978   1.410   0.378   3.042 -1.6398 -0.0718 -0.9373
 2600SOL    HW2 7979   1.269   0.328   3.106 -0.7221 -1.3462  0.1566
 2601SOL     OW 7980   6.458   3.231   4.403  0.1371  0.2883 -0.1812
 2601SOL    HW1 7981   6.550   3.235   4.365  0.4785 -3.0852  0.0652
 2601SOL    HW2 7982   6.460   3.268   4.497  1.0690  0.8256 -0.3919
 2602SOL     OW 7983   1.730   3.908   0.642  0.2894 -0.1937  0.1806
 2602SOL    HW1 7984   1.701   3.816   0.668  1.1072  0.0503  2.0882
 2602SOL    HW2 7985   1.669   3.942   0.570 -1.2216 -1.4828  0.7822
 2603SOL     OW 7986   7.546   1.327   1.948  0.4960 -0.0498 -0.1143
 2603SOL    HW1 7987   7.483   1.263   1.903 -0.2271  0.3102  0.3703
 2603SOL    HW2 7988   7.503   1.417   1.956 -0.0432 -0.4554  2.6320
 2604SOL     OW 7989   1.791   6.617   8.694  0.9571 -0.1778 -0.2734
 2604SOL    HW1 7990   1.879   6.580   8.666  1.1308 -2.0369  2.2892
 2604SOL    HW2 7991   1.718   6.557   8.663  0.4599  1.5108 -2.6469
 2605SOL     OW 7992   6.289   4.378   2.301 -0.1062 -0.0491  0.3616
 2605SOL    HW1 7993   6.356   4.326   2.354 -1.7361 -0.5100  2.0786
 2605SOL    HW2 7994   6.333   4.459   2.261  1.6635 -0.8598  0.5938
 2606SOL     OW 7995   2.335   5.428   5.062 -0.0761  0.8848  0.1333
 2606SOL    HW1 7996   2.301   5.335   5.076 -0.3233  1.2179  2.1073
 2606SOL    HW2 7997   2.427   5.424   5.023 -0.1209 -0.1749  0.0974
 2607SOL     OW 7998   7.609   3.519   1.697 -0.0100  0.3013  0.1158
 2607SOL    HW1 7999   7.536   3.580   1.667  0.5255  0.0465 -1.7811
 2607SOL    HW2 8000   7.582   3.424   1.682  0.1873  0.1508  0.6741
 2608SOL     OW 8001   5.781   7.773   0.984 -0.3397  0.3338 -0.3041
 2608SOL    HW1 8002   5.755   7.804   1.075 -0.7372 -0.4373 -0.1472
 2608SOL    HW2 8003   5.706   7.790   0.920 -1.3108 -1.9005  0.1505
 2609SOL     OW 8004   7.091   4.507   7.913 -0.4294 -0.6086  0.2132
 2609SOL    HW1 8005   7.157   4.544   7.847 -0.9600  0.1599  0.1022
 2609SOL    HW2 8006   7.098   4.407   7.913  2.0483 -0.5228  1.5565
 2610SOL     OW 8007   1.229   1.183   8.230 -0.1389  0.0938 -0.7511
 2610SOL    HW1 8008   1.298   1.224   8.288 -0.6781  2.6355 -1.7606
 2610SOL    HW2 8009   1.155   1.146   8.286  0.8304 -0.3932  0.2359
 2611SOL     OW 8010   3.447   7.724   5.143  0.2747  0.3146 -0.2938
 2611SOL    HW1 8011   3.394   7.744   5.060 -1.0697  1.1033  0.7162
 2611SOL    HW2 8012   3.469   7.626   5.145 -3.3321 -0.6327  0.3989
 2612SOL     OW 8013   5.386   3.848   4.926 -0.1749  0.1999 -0.4734
 2612SOL    HW1 8014   5.473   3.807   4.954 -0.7545 -0.3882  0.5315
 2612SOL    HW2 8015   5.314   3.780   4.933 -0.7714  0.7650 -1.0244
 2613SOL     OW 8016   1.661   7.610   5.677  0.1240  0.1468  0.5419
 2613SOL    HW1 8017   1.606   7.683   5.718  0.2302 -0.1322  1.1843
 2613SOL    HW2 8018   1.686   7.544   5.747  1.1286  0.1739  0.2123
 2614SOL     OW 8019   7.929   6.908   0.133  0.4874 -0.2634  0.2045
 2614SOL    HW1 8020   7.837   6.876   0.157  1.1968 -3.1476 -0.5343
 2614SOL    HW2 8021   7.925   6.959   0.047 -0.4045 -0.6283  0.0173
 2615SOL     OW 8022   2.952   7.139   4.936  0.3170  0.2829 -0.0715
 2615SOL    HW1 8023   2.962   7.044   4.905 -0.6963  0.6436 -1.6213
 2615SOL    HW2 8024   2.895   7.189   4.871 -0.8075  1.4534  1.7258
 2616SOL     OW 8025   3.069   3.798   5.971  0.9546  0.5538 -0.4540
 2616SOL    HW1 8026   3.091   3.728   6.040 -1.1125 -0.4796 -0.7651
 2616SOL    HW2 8027   2.971   3.818   5.974  1.0144  1.3253 -2.3384
 2617SOL     OW 8028   6.545   7.564   0.793 -0.6141 -0.1410  0.2564
 2617SOL    HW1 8029   6.605   7.564   0.874 -1.2318  0.1653  0.7220
 2617SOL    HW2 8030   6.503   7.655   0.783 -0.4453 -0.1400 -0.4861
 2618SOL     OW 8031   2.234   3.987   4.978 -0.1407  0.4777  0.2460
 2618SOL    HW1 8032   2.235   3.987   5.078 -0.3063  0.2164  0.2513
 2618SOL    HW2 8033   2.206   4.077   4.944 -0.4637  0.4523  0.4430
 2619SOL     OW 8034   4.123   2.537   3.126  0.2018 -0.4492  0.1210
 2619SOL    HW1 8035   4.206   2.536   3.070  0.4944  2.3841  0.3513
 2619SOL    HW2 8036   4.146   2.514   3.220  0.4941 -0.9004 -0.0588
 2620SOL     OW 8037   3.791   3.959   5.785  0.3077 -0.3808 -0.4835
 2620SOL    HW1 8038   3.801   4.058   5.794 -4.4911  0.3108  0.2852
 2620SOL    HW2 8039   3.840   3.914   5.859  0.8203  1.6098  0.4740
 2621SOL     OW 8040   4.656   5.804   5.239 -0.2988 -0.4778  0.5678
 2621SOL    HW1 8041   4.567   5.759   5.236 -0.3073 -0.4928  0.9755
 2621SOL    HW2 8042   4.668   5.860   5.157 -1.2902  0.6631  1.1726
 2622SOL     OW 8043   2.120   3.261   1.297  0.0885 -0.0057 -0.5534
 2622SOL    HW1 8044   2.152   3.242   1.390 -0.9406  0.4272 -0.0950
 2622SOL    HW2 8045   2.040   3.321   1.301  0.4510  0.5946 -1.7564
 2623SOL     OW 8046   3.397   0.699   6.961 -0.0469 -0.4313  0.3568
 2623SOL    HW1 8047   3.495   0.679   6.963  0.2565  0.9760  0.3923
 2623SOL    HW2 8048   3.363   0.706   7.054  0.1218  0.4066  0.3660
 2624SOL     OW 8049   7.426   1.282   8.350 -0.4784 -0.3546 -0.2292
 2624SOL    HW1 8050   7.344   1.307   8.299 -1.5934 -1.4559  0.9343
 2624SOL    HW2 8051   7.426   1.330   8.438  0.4816  0.1364 -0.4842
 2625SOL     OW 8052   8.373   1.120   8.516  1.0136  0.0825 -0.1438
 2625SOL    HW1 8053   8.324   1.033   8.516 -0.6743  0.9708 -1.5425
 2625SOL    HW2 8054   8.430   1.126   8.598 -0.1308 -1.6143  0.8351
 2626SOL     OW 8055   7.845   1.233   7.537 -0.1247  0.2849 -0.4690
 2626SOL    HW1 8056   7.772   1.287   7.580 -0.6246 -1.1265  0.5454
 2626SOL    HW2 8057   7.844   1.248   7.438 -1.4841  0.6581 -0.4174
 2627SOL     OW 8058   6.888   4.911   8.131  0.1000  0.3558 -0.3909
 2627SOL    HW1 8059   6.936   4.823   8.132  1.2410  0.9484 -0.7595
 2627SOL    HW2 8060   6.850   4.930   8.222  2.0739  0.6386  0.4285
 2628SOL     OW 8061   3.741   2.816   5.961 -0.3659  0.0270 -0.3905
 2628SOL    HW1 8062   3.839   2.806   5.944  0.3595  3.1473  1.0671
 2628SOL    HW2 8063   3.719   2.775   6.049 -0.8460 -2.3367 -1.5425
 2629SOL     OW 8064   5.686   0.713   4.204  0.2817  0.0059  0.2014
 2629SOL    HW1 8065   5.774   0.759   4.212 -0.1732  0.9940 -0.2603
 2629SOL    HW2 8066   5.700   0.614   4.203  1.6368  0.1327 -2.2705
 2630SOL     OW 8067   5.129   2.613   7.226  0.2322  0.5297  0.1874
 2630SOL    HW1 8068   5.040   2.569   7.219  0.9915 -1.2679  1.1503
 2630SOL    HW2 8069   5.142   2.675   7.148 -1.1412 -0.4914 -0.8999
 2631SOL     OW 8070   5.277   4.816   5.267  0.0619 -0.5724  0.2620
 2631SOL    HW1 8071   5.251   4.769   5.183 -0.9811  1.5201 -0.6428
 2631SOL    HW2 8072   5.360   4.870   5.251  0.1101 -0.5015  0.7228
 2632SOL     OW 8073   8.486   2.344   8.663  1.0038 -0.2695  0.0311
 2632SOL    HW1 8074   8.525   2.428   8.701  2.4610 -0.7496 -0.3448
 2632SOL    HW2 8075   8.434   2.366   8.580  1.3036  0.2674 -0.0155
 2633SOL     OW 8076   5.662   5.142   5.689 -0.1838 -0.5602 -0.3337
 2633SOL    HW1 8077   5.754   5.117   5.658  1.0815  0.7825  2.0136
 2633SOL    HW2 8078   5.633   5.226   5.643  0.1879 -0.4645 -0.3970
 2634SOL     OW 8079   8.607   5.287   7.719 -0.6518 -0.1460 -0.0610
 2634SOL    HW1 8080   8.570   5.328   7.803  3.6039 -0.5315  2.2543
 2634SOL    HW2 8081   8.646   5.359   7.661  1.3600 -0.2426  1.0792
 2635SOL     OW 8082   5.766   1.120   6.212 -0.2206 -0.5132 -0.2252
 2635SOL    HW1 8083   5.689   1.139   6.152 -1.1468  2.1123  1.5952
 2635SOL    HW2 8084   5.841   1.182   6.191 -0.1821 -0.2458  0.6468
 2636SOL     OW 8085   6.486   8.435   0.566  0.0780  0.1552  0.2823
 2636SOL    HW1 8086   6.529   8.362   0.619  0.1172  0.9073  1.3067
 2636SOL    HW2 8087   6.422   8.485   0.624 -4.4834 -2.6326 -1.7990
 2637SOL     OW 8088   6.524   6.559   1.430 -0.0110 -0.1054 -0.1188
 2637SOL    HW1 8089   6.619   6.528   1.434  0.4975  1.2238 -1.2229
 2637SOL    HW2 8090   6.521   6.654   1.397 -1.6246  0.3909  1.3152
 2638SOL     OW 8091   1.501   0.131   8.100  0.1605  0.2291  0.3627
 2638SOL    HW1 8092   1.558   0.109   8.179  0.9126 -1.0275 -0.4945
 2638SOL    HW2 8093   1.542   0.207   8.050 -0.8765  1.7481  1.7125
 2639SOL     OW 8094   4.960   1.376   0.775  0.0829  0.1115  0.4762
 2639SOL    HW1 8095   5.028   1.377   0.848  1.2938  0.5428 -0.6281
 2639SOL    HW2 8096   4.869   1.389   0.815  0.8182  1.5312  1.8058
 2640SOL     OW 8097   1.401   0.550   1.124  0.5735 -0.4703  0.0769
 2640SOL    HW1 8098   1.487   0.596   1.101 -0.2350  0.0471 -2.1994
 2640SOL    HW2 8099   1.405   0.455   1.094 -0.0037 -0.1554 -1.0582
 2641SOL     OW 8100   3.940   7.887   7.901 -0.1743  0.1193 -0.2365
 2641SOL    HW1 8101   4.040   7.890   7.890 -0.1258 -1.6102 -0.5157
 2641SOL    HW2 8102   3.911   7.793   7.919 -1.9644  0.1879 -2.3606
 2642SOL     OW 8103   8.303   3.200   1.298 -0.4915  0.5480  0.1296
 2642SOL    HW1 8104   8.321   3.156   1.210  0.0766  0.4936  0.2708
 2642SOL    HW2 8105   8.232   3.149   1.347  1.1250 -1.0576  0.8993
 2643SOL     OW 8106   7.368   4.060   0.197  0.3153 -0.4881 -0.2523
 2643SOL    HW1 8107   7.288   4.026   0.148  1.0338 -1.5998 -0.6893
 2643SOL    HW2 8108   7.358   4.041   0.295  0.0573 -0.6523 -0.3094
 2644SOL     OW 8109   7.405   4.680   0.998  0.3535 -0.1226 -0.7478
 2644SOL    HW1 8110   7.335   4.628   1.048  1.3395  0.0415  0.8825
 2644SOL    HW2 8111   7.405   4.653   0.902 -2.1909  0.1427 -0.8900
 2645SOL     OW 8112   8.803   7.494   2.052  0.2043 -0.0137  0.5013
 2645SOL    HW1 8113   8.726   7.508   2.114  0.8761  0.6062  1.2198
 2645SOL    HW2 8114   8.887   7.488   2.105  0.9170  1.5850 -0.3893
 2646SOL     OW 8115   6.793   3.170   7.632 -0.5720 -0.3275 -0.0995
 2646SOL    HW1 8116   6.735   3.090   7.649 -0.5515 -0.5006 -0.7991
 2646SOL    HW2 8117   6.888   3.148   7.651 -0.7089 -0.0769  0.9440
 2647SOL     OW 8118   8.027   0.621   1.593  0.1356 -0.7302  0.1077
 2647SOL    HW1 8119   7.940   0.593   1.634  0.1813 -0.7558  0.1889
 2647SOL    HW2 8120   8.097   0.552   1.614  0.2803 -0.4949  0.4213
 2648SOL     OW 8121   5.877   5.406   5.497 -0.7427 -0.9956  0.0369
 2648SOL    HW1 8122   5.780   5.391   5.513 -0.9682 -0.1482 -0.4752
 2648SOL    HW2 8123   5.917   5.451   5.577 -1.1204  0.0648 -0.3462
 2649SOL     OW 8124   8.000   0.588   0.923 -0.0368 -0.6647 -0.1936
 2649SOL    HW1 8125   7.980   0.490   0.918  1.6174 -1.0248 -0.1279
 2649SOL    HW2 8126   8.047   0.608   1.008 -1.1093  0.3607  0.1872
 2650SOL     OW 8127   1.867   2.376   6.003 -0.2707  0.2745  0.7930
 2650SOL    HW1 8128   1.811   2.441   6.054 -0.2990  1.1024 -0.2528
 2650SOL    HW2 8129   1.962   2.382   6.035 -0.0815  1.5366  0.0808
 2651SOL     OW 8130   1.499   1.025   6.321  0.0983 -0.3367  0.8771
 2651SOL    HW1 8131   1.584   1.077   6.333 -0.6453  0.9292  0.9181
 2651SOL    HW2 8132   1.451   1.021   6.408 -1.1461  1.3121  0.3210
 2652SOL     OW 8133   7.739   3.881   7.203 -0.0179 -0.3502 -0.4445
 2652SOL    HW1 8134   7.835   3.886   7.175 -0.0971 -0.1869 -0.6886
 2652SOL    HW2 8135   7.728   3.921   7.294  0.0296  0.2611 -0.7018
 2653SOL     OW 8136   0.557   5.478   6.665 -0.0454 -0.1815 -0.2988
 2653SOL    HW1 8137   0.516   5.508   6.578 -1.6331 -0.0602  0.4643
 2653SOL    HW2 8138   0.558   5.555   6.729 -1.4477 -0.9599  0.6985
 2654SOL     OW 8139   8.262   7.968   8.641  0.1055  0.3387  0.0143
 2654SOL    HW1 8140   8.262   7.900   8.568 -0.5678  0.2891  0.0588
 2654SOL    HW2 8141   8.353   7.973   8.681  0.4957  0.4054 -0.8587
 2655SOL     OW 8142   3.562   7.155   7.056 -0.3296  0.0581 -0.9789
 2655SOL    HW1 8143   3.606   7.143   7.145  0.9920 -0.0085 -1.6117
 2655SOL    HW2 8144   3.468   7.122   7.060 -0.6572  1.0887  0.6859
 2656SOL     OW 8145   2.079   5.180   3.019 -0.2286 -0.1731 -0.1458
 2656SOL    HW1 8146   2.123   5.263   3.051 -1.2394  0.0317  0.7609
 2656SOL    HW2 8147   1.997   5.203   2.966 -0.7665 -0.5885  0.4876
 2657SOL     OW 8148   2.612   8.310   3.809 -0.2267 -0.5883  0.1084
 2657SOL    HW1 8149   2.626   8.364   3.725 -2.3290  0.7482  0.5413
 2657SOL    HW2 8150   2.543   8.240   3.792  0.6584 -1.5259  0.2676
 2658SOL     OW 8151   3.293   1.665   3.375  0.3005 -0.0903 -0.5503
 2658SOL    HW1 8152   3.338   1.748   3.340  1.8386 -0.4141  0.5789
 2658SOL    HW2 8153   3.210   1.691   3.424 -0.4842  0.5740 -2.1384
 2659SOL     OW 8154   4.198   5.657   2.903  0.3358 -0.3497  0.2023
 2659SOL    HW1 8155   4.297   5.655   2.887  0.6007 -1.4413  1.7057
 2659SOL    HW2 8156   4.181   5.672   3.000 -1.0893  3.6111 -0.5010
 2660SOL     OW 8157   1.975   5.662   0.502 -0.4643 -0.5549  0.4604
 2660SOL    HW1 8158   2.000   5.595   0.572  4.5960 -1.5773 -1.8594
 2660SOL    HW2 8159   2.005   5.753   0.531  0.3159 -0.7483  0.2960
 2661SOL     OW 8160   7.242   6.626   1.113 -0.6231  0.1183 -0.6873
 2661SOL    HW1 8161   7.305   6.656   1.042 -0.8256  0.0941 -0.8779
 2661SOL    HW2 8162   7.256   6.529   1.131  1.3581  0.7018  1.2804
 2662SOL     OW 8163   3.861   7.026   7.897 -0.0303 -0.0095 -0.8921
 2662SOL    HW1 8164   3.765   6.999   7.893 -0.3872  0.5299  2.1002
 2662SOL    HW2 8165   3.870   7.122   7.872 -0.5437  0.3961  0.4256
 2663SOL     OW 8166   4.167   6.443   4.629 -0.3467 -0.0027  0.0749
 2663SOL    HW1 8167   4.141   6.454   4.533  1.1776 -0.7319 -0.4466
 2663SOL    HW2 8168   4.252   6.391   4.635  0.5855  1.5987  1.7278
 2664SOL     OW 8169   6.500   7.028   1.152  0.3442 -0.6699 -0.0965
 2664SOL    HW1 8170   6.422   7.033   1.089  0.6845 -2.0217 -0.6601
 2664SOL    HW2 8171   6.486   6.953   1.217 -0.0610  0.7832  1.5609
 2665SOL     OW 8172   6.982   6.178   8.353  0.0177 -0.8131 -0.4673
 2665SOL    HW1 8173   7.003   6.251   8.417 -2.0382 -0.0740 -0.5681
 2665SOL    HW2 8174   7.013   6.091   8.390  3.0984  0.1001 -0.6315
 2666SOL     OW 8175   3.253   6.999   6.249  0.0489 -0.1349  0.8103
 2666SOL    HW1 8176   3.338   6.972   6.203 -0.0604 -0.3114  0.7129
 2666SOL    HW2 8177   3.261   7.094   6.279  0.3748 -0.2235  1.0152
 2667SOL     OW 8178   0.329   5.113   6.323 -0.3989  0.7046 -0.3829
 2667SOL    HW1 8179   0.259   5.143   6.258 -1.5221  2.7091  1.5969
 2667SOL    HW2 8180   0.415   5.099   6.275 -1.4039  1.1780 -2.4340
 2668SOL     OW 8181   0.823   3.330   3.089  0.0351 -0.8194 -0.5320
 2668SOL    HW1 8182   0.858   3.393   3.159  1.0266 -1.2171 -0.6560
 2668SOL    HW2 8183   0.786   3.382   3.012 -0.3424 -0.3859 -0.0637
 2669SOL     OW 8184   1.979   3.907   2.047 -0.3210  0.2365  0.0758
 2669SOL    HW1 8185   2.025   3.861   2.123  1.0579  0.5120 -0.5603
 2669SOL    HW2 8186   1.964   4.003   2.070  0.6965  0.4826 -0.2286
 2670SOL     OW 8187   1.444   1.640   7.240  0.1744  0.1617 -0.2450
 2670SOL    HW1 8188   1.539   1.668   7.245  0.1867  0.0180  0.5081
 2670SOL    HW2 8189   1.419   1.593   7.325 -0.8092  0.9734 -0.0637
 2671SOL     OW 8190   7.465   6.368   3.416  0.4170  0.4115  0.2576
 2671SOL    HW1 8191   7.419   6.386   3.503 -0.0260  2.1439 -0.2832
 2671SOL    HW2 8192   7.556   6.330   3.433  0.9047  2.0229  1.5633
 2672SOL     OW 8193   1.367   5.493   2.912 -0.0536  0.1746  0.1904
 2672SOL    HW1 8194   1.386   5.395   2.916 -0.3388  0.0945 -0.2781
 2672SOL    HW2 8195   1.280   5.507   2.865  0.0870  0.6646  0.0765
 2673SOL     OW 8196   2.058   8.010   5.201 -0.5777 -0.4367 -0.0417
 2673SOL    HW1 8197   2.083   8.088   5.144 -0.2009 -1.2561 -1.0314
 2673SOL    HW2 8198   2.045   7.929   5.144 -2.0893 -0.8564  0.8318
 2674SOL     OW 8199   4.982   6.975   3.899 -0.2623  0.7946  0.4952
 2674SOL    HW1 8200   4.991   6.990   3.997 -1.7664  1.3576  0.5811
 2674SOL    HW2 8201   5.072   6.966   3.858  0.3750 -1.1296  2.1563
 2675SOL     OW 8202   3.438   6.456   3.795 -0.0230  0.1123  0.0588
 2675SOL    HW1 8203   3.521   6.457   3.740  0.1961 -0.1957  0.3783
 2675SOL    HW2 8204   3.432   6.369   3.844 -0.8886 -0.1603 -0.5050
 2676SOL     OW 8205   7.016   4.952   6.534  0.2901  0.3939 -0.0922
 2676SOL    HW1 8206   6.969   5.039   6.551 -0.8851  0.1696 -1.9522
 2676SOL    HW2 8207   7.100   4.970   6.483  0.0911  0.4607 -0.4011
 2677SOL     OW 8208   3.937   4.226   0.524 -0.0048 -0.0110  0.1678
 2677SOL    HW1 8209   4.032   4.214   0.496 -0.4843 -1.4067 -0.9241
 2677SOL    HW2 8210   3.904   4.143   0.569 -0.9292  0.1917 -0.1156
 2678SOL     OW 8211   1.679   1.650   7.391  0.0885  0.3798 -0.7055
 2678SOL    HW1 8212   1.732   1.575   7.351 -2.9246 -2.3464  0.0971
 2678SOL    HW2 8213   1.692   1.651   7.490  0.0331  0.9250 -0.6979
 2679SOL     OW 8214   7.232   2.401   2.657 -0.0717 -0.4729 -0.6839
 2679SOL    HW1 8215   7.262   2.461   2.583 -0.7824 -0.7608 -1.2239
 2679SOL    HW2 8216   7.150   2.440   2.700  1.4773  0.7332  1.3242
 2680SOL     OW 8217   7.466   2.293   1.971  0.1451 -0.2160  0.7569
 2680SOL    HW1 8218   7.423   2.278   2.060  0.6884  0.3872  1.1246
 2680SOL    HW2 8219   7.429   2.377   1.930 -0.2057 -0.5669  0.3499
 2681SOL     OW 8220   5.012   1.110   0.399 -0.0106 -0.4047 -0.0520
 2681SOL    HW1 8221   5.001   1.199   0.442  1.0119 -0.6093  0.6819
 2681SOL    HW2 8222   5.106   1.100   0.366 -0.2738 -0.9860 -0.6477
 2682SOL     OW 8223   2.685   0.418   2.622  0.1488  0.5562  0.4116
 2682SOL    HW1 8224   2.703   0.481   2.546  0.1810  1.0908  0.8602
 2682SOL    HW2 8225   2.762   0.419   2.685  0.1775  0.0113  0.3847
 2683SOL     OW 8226   0.215   7.753   4.023  0.1291 -0.5091 -0.2626
 2683SOL    HW1 8227   0.276   7.702   3.964 -0.0891  0.4805 -1.3812
 2683SOL    HW2 8228   0.130   7.702   4.035  0.2519 -0.8053 -0.6312
 2684SOL     OW 8229   6.449   7.730   3.728  0.2201  0.3674  0.0530
 2684SOL    HW1 8230   6.403   7.804   3.678  0.1621  0.4247  0.1916
 2684SOL    HW2 8231   6.459   7.651   3.668 -0.9159  0.0133  0.3179
 2685SOL     OW 8232   3.881   1.878   4.492 -0.4890  0.0097 -0.0735
 2685SOL    HW1 8233   3.882   1.914   4.399  0.0343  0.1476 -0.0166
 2685SOL    HW2 8234   3.965   1.905   4.539  1.2315 -3.3836 -0.8416
 2686SOL     OW 8235   3.159   8.252   0.010 -0.4014 -0.2295  0.0008
 2686SOL    HW1 8236   3.214   8.226   0.090  0.0925  1.2740  0.1830
 2686SOL    HW2 8237   3.182   8.192  -0.067  0.5242 -0.4731  0.4472
 2687SOL     OW 8238   8.186   3.818   6.723  0.2743  0.3066 -0.6136
 2687SOL    HW1 8239   8.163   3.721   6.717 -0.3010  0.3689  0.5210
 2687SOL    HW2 8240   8.142   3.867   6.647  1.1686 -0.4034 -1.6369
 2688SOL     OW 8241   2.358   2.896   8.357 -0.3051  0.2007  0.8381
 2688SOL    HW1 8242   2.291   2.938   8.419  0.9135  1.7280  1.1736
 2688SOL    HW2 8243   2.449   2.902   8.397  0.8689  3.0191 -1.8100
 2689SOL     OW 8244   5.976   2.555   7.260 -0.4046  0.3110 -0.0711
 2689SOL    HW1 8245   6.075   2.560   7.263 -0.4774  1.2768  1.7883
 2689SOL    HW2 8246   5.945   2.566   7.165  1.1906  1.2605 -0.5205
 2690SOL     OW 8247   8.638   8.206   7.596 -0.9164 -0.1379 -0.0092
 2690SOL    HW1 8248   8.719   8.149   7.582  0.8354  1.8233  1.4078
 2690SOL    HW2 8249   8.653   8.265   7.675 -3.7890  0.3019  0.3052
 2691SOL     OW 8250   1.855   3.877   6.796  0.6297  0.5995 -0.1616
 2691SOL    HW1 8251   1.907   3.826   6.865  1.3836  0.9320 -0.4718
 2691SOL    HW2 8252   1.910   3.953   6.762  0.0819  0.7306 -0.7822
 2692SOL     OW 8253   1.036   7.295   0.990  0.1105  0.0054  0.8218
 2692SOL    HW1 8254   1.134   7.315   0.987  0.0132  0.4669  0.5650
 2692SOL    HW2 8255   1.008   7.255   0.902 -0.0242  0.3264  0.7182
 2693SOL     OW 8256   1.354   4.427   5.502  0.1115  0.3998 -0.2334
 2693SOL    HW1 8257   1.393   4.508   5.458 -0.5967  0.9863  0.1837
 2693SOL    HW2 8258   1.405   4.406   5.584 -0.1216  0.8532  0.0337
 2694SOL     OW 8259   4.470   5.702   6.627  0.0111  0.1200 -0.0157
 2694SOL    HW1 8260   4.406   5.748   6.690 -3.1004  3.4347 -4.8905
 2694SOL    HW2 8261   4.558   5.750   6.628 -0.8785  1.8226 -0.0160
 2695SOL     OW 8262   0.449   3.544   0.716  0.1354 -0.2726 -0.1331
 2695SOL    HW1 8263   0.454   3.474   0.787  1.3074  0.4312  0.5001
 2695SOL    HW2 8264   0.362   3.593   0.724 -0.9322 -1.9225 -0.8903
 2696SOL     OW 8265   1.817   4.895   6.833 -0.0248  0.0011 -0.0976
 2696SOL    HW1 8266   1.866   4.944   6.904 -1.9888 -0.8442  1.9627
 2696SOL    HW2 8267   1.782   4.809   6.870 -3.5678  0.8143 -1.1694
 2697SOL     OW 8268   0.477   3.061   4.849 -0.0896 -0.4026  0.2988
 2697SOL    HW1 8269   0.445   3.138   4.794 -1.0427  1.3890  3.1172
 2697SOL    HW2 8270   0.417   2.982   4.836 -1.3187  0.5450  0.0557
 2698SOL     OW 8271   5.756   7.170   3.855 -0.2387  0.0523 -0.3461
 2698SOL    HW1 8272   5.785   7.167   3.950 -1.7313 -0.4155  0.1118
 2698SOL    HW2 8273   5.718   7.082   3.828  0.3074  0.1332 -1.4230
 2699SOL     OW 8274   6.255   8.502   4.218  0.1703  0.2238 -0.1903
 2699SOL    HW1 8275   6.277   8.539   4.308  1.2282 -1.2203  0.1808
 2699SOL    HW2 8276   6.220   8.409   4.228  1.0172 -0.2335 -1.3154
 2700SOL     OW 8277   6.199   7.051   0.711  0.2780 -0.2248 -0.4993
 2700SOL    HW1 8278   6.137   7.024   0.785  1.5294 -1.9785 -0.0295
 2700SOL    HW2 8279   6.146   7.092   0.637 -1.2614 -0.3121  0.5056
 2701SOL     OW 8280   5.442   2.028   6.018  0.3537 -0.2190  0.3097
 2701SOL    HW1 8281   5.471   2.117   5.984  0.9732 -0.0143  1.3379
 2701SOL    HW2 8282   5.482   1.956   5.960 -0.5371  0.1658 -0.8073
 2702SOL     OW 8283   1.411   0.852   2.287  0.4798 -0.2310  0.3087
 2702SOL    HW1 8284   1.348   0.864   2.364 -0.5980 -0.2399 -0.5366
 2702SOL    HW2 8285   1.399   0.928   2.223  0.1883 -1.0448 -0.6324
 2703SOL     OW 8286   0.890   2.050   3.534 -0.5068 -0.5301  0.1102
 2703SOL    HW1 8287   0.865   2.140   3.570 -0.6427 -0.7835  0.6562
 2703SOL    HW2 8288   0.830   1.980   3.572  0.1381 -0.9637  0.3522
 2704SOL     OW 8289   6.192   5.829   2.700  0.3699 -0.1584 -0.7117
 2704SOL    HW1 8290   6.163   5.863   2.611 -0.7818 -0.9101 -0.6405
 2704SOL    HW2 8291   6.281   5.869   2.723  0.7756 -0.0837 -2.2646
 2705SOL     OW 8292   7.622   1.672   0.825 -0.4188 -0.5970 -0.4091
 2705SOL    HW1 8293   7.702   1.657   0.884 -0.4185 -4.3146 -1.1225
 2705SOL    HW2 8294   7.545   1.703   0.881  0.4414 -0.9645  1.0265
 2706SOL     OW 8295   6.873   0.593   3.603 -0.2272  0.3371  0.4702
 2706SOL    HW1 8296   6.856   0.573   3.699 -0.3546  2.2269  0.8871
 2706SOL    HW2 8297   6.916   0.684   3.595  0.5159 -0.1237 -1.2071
 2707SOL     OW 8298   5.628   0.494   1.791  0.1429  0.5503  0.0577
 2707SOL    HW1 8299   5.542   0.522   1.748 -1.2334  0.1446  2.3993
 2707SOL    HW2 8300   5.633   0.394   1.793  0.4621  0.5697  0.3425
 2708SOL     OW 8301   4.856   6.332   6.623  0.1570 -0.1267 -0.6149
 2708SOL    HW1 8302   4.831   6.264   6.692 -0.4035 -0.4722 -1.1522
 2708SOL    HW2 8303   4.953   6.353   6.632 -0.3117  1.4525  1.6896
 2709SOL     OW 8304   6.230   0.007   5.128 -0.3995  1.3307 -0.3625
 2709SOL    HW1 8305   6.161  -0.056   5.165 -0.7154  1.3013 -0.9902
 2709SOL    HW2 8306   6.191   0.058   5.051  0.5317  0.7161 -1.2720
 2710SOL     OW 8307   2.857   0.744   2.666  0.3440  0.4555  0.5574
 2710SOL    HW1 8308   2.941   0.754   2.613 -0.9322 -0.4585 -1.8095
 2710SOL    HW2 8309   2.800   0.825   2.655 -0.1638  0.0407 -0.0020
 2711SOL     OW 8310   7.166   7.518   7.686  0.1959 -0.6974 -0.0510
 2711SOL    HW1 8311   7.102   7.516   7.609 -0.9402 -0.5670  0.8662
 2711SOL    HW2 8312   7.172   7.611   7.722 -1.6259 -1.2678  1.8930
 2712SOL     OW 8313   3.842   7.569   3.934  0.3193  0.6729 -0.2153
 2712SOL    HW1 8314   3.751   7.529   3.938  0.7392 -0.4290 -1.0259
 2712SOL    HW2 8315   3.836   7.669   3.941 -0.8705  0.5737  0.4361
 2713SOL     OW 8316   4.157   0.439   3.464  0.2900  0.4635 -0.3453
 2713SOL    HW1 8317   4.126   0.444   3.369 -0.8139  0.6926  0.0133
 2713SOL    HW2 8318   4.098   0.497   3.521  1.4794  1.0352  0.3487
 2714SOL     OW 8319   0.843   6.460   3.239 -0.3701  0.1219 -0.1887
 2714SOL    HW1 8320   0.904   6.431   3.313  0.6441  1.0654 -0.6153
 2714SOL    HW2 8321   0.788   6.383   3.209  0.1356 -0.5970  0.6737
 2715SOL     OW 8322   8.026   7.217   6.114  0.2109 -0.5711  0.6299
 2715SOL    HW1 8323   8.021   7.266   6.201  1.1397  1.4803 -0.3968
 2715SOL    HW2 8324   8.026   7.119   6.130  2.2698 -0.2516  3.0799
 2716SOL     OW 8325   2.378   6.556   1.559 -0.4480 -0.0803 -0.3922
 2716SOL    HW1 8326   2.318   6.590   1.486 -0.8087 -0.5171 -0.3063
 2716SOL    HW2 8327   2.346   6.466   1.588 -0.7483  0.3972  0.8115
 2717SOL     OW 8328   3.730   6.452   5.643  0.1418 -0.6874  0.3587
 2717SOL    HW1 8329   3.769   6.543   5.648  0.4269 -0.7653 -0.3893
 2717SOL    HW2 8330   3.636   6.454   5.679  0.0468 -0.0465  0.0872
 2718SOL     OW 8331   7.029   3.966   2.964  0.2524 -0.2944  0.5498
 2718SOL    HW1 8332   7.098   3.940   3.032  1.8917 -0.2723 -1.0272
 2718SOL    HW2 8333   7.012   3.889   2.902  1.4495  0.7289 -1.1409
 2719SOL     OW 8334   0.292   6.143   3.075  0.0807 -0.2629  0.0622
 2719SOL    HW1 8335   0.307   6.060   3.129 -0.5321 -0.6022 -0.2847
 2719SOL    HW2 8336   0.196   6.150   3.050  0.2238  0.2871 -0.3513
 2720SOL     OW 8337   1.911   0.181   1.742  0.0613 -0.3627  0.3380
 2720SOL    HW1 8338   1.875   0.273   1.723 -0.2149 -0.5276  0.0537
 2720SOL    HW2 8339   1.925   0.171   1.841  2.3469  0.8134  0.1842
 2721SOL     OW 8340   5.152   3.057   4.352  0.4212 -0.2122  0.1147
 2721SOL    HW1 8341   5.166   3.109   4.436 -0.1341 -0.6951  0.5176
 2721SOL    HW2 8342   5.104   2.972   4.373 -0.2209 -0.0825 -0.7623
 2722SOL     OW 8343   5.201   3.328   6.177 -0.0578  0.4540  0.1666
 2722SOL    HW1 8344   5.169   3.381   6.099 -0.0395  1.2885  0.7100
 2722SOL    HW2 8345   5.300   3.315   6.170  0.4562  2.9831  1.4244
 2723SOL     OW 8346   5.562   8.569   7.365  0.3854 -0.3668 -0.1276
 2723SOL    HW1 8347   5.467   8.558   7.395  0.6933 -0.6709  0.7396
 2723SOL    HW2 8348   5.580   8.666   7.348 -0.0469 -0.2939 -0.1884
 2724SOL     OW 8349   8.699   4.234   2.355 -0.3388  0.7723 -0.6318
 2724SOL    HW1 8350   8.680   4.292   2.434 -0.9335 -1.3772  0.8819
 2724SOL    HW2 8351   8.644   4.265   2.277 -1.9083  1.2342  0.6122
 2725SOL     OW 8352   2.034   5.437   0.640  0.1701  0.0462 -0.0683
 2725SOL    HW1 8353   2.036   5.337   0.642  1.3143  0.0608  0.4896
 2725SOL    HW2 8354   1.981   5.471   0.718  1.1639 -0.1234  0.7043
 2726SOL     OW 8355   6.001   1.231   3.301  0.2381 -0.4073 -0.8057
 2726SOL    HW1 8356   5.966   1.296   3.233  1.1131  1.6953  0.6448
 2726SOL    HW2 8357   5.931   1.164   3.324 -1.2410  0.9398 -1.2619
 2727SOL     OW 8358   6.427   0.929   7.097 -0.3791 -0.7246  0.2704
 2727SOL    HW1 8359   6.526   0.914   7.088 -0.5413 -1.2766 -0.6418
 2727SOL    HW2 8360   6.395   0.988   7.023 -1.1225 -2.4612 -0.8623
 2728SOL     OW 8361   1.716   5.067   5.029  0.1093  0.0202  0.1000
 2728SOL    HW1 8362   1.621   5.038   5.015  0.2321 -0.5181  0.3652
 2728SOL    HW2 8363   1.771   5.040   4.950  0.3524 -1.0489  0.6226
 2729SOL     OW 8364   0.398   6.607   3.696  0.0083  0.1985 -0.3676
 2729SOL    HW1 8365   0.383   6.510   3.716 -0.6706  0.3904  0.0566
 2729SOL    HW2 8366   0.486   6.635   3.735  1.1015 -0.6859 -2.0656
 2730SOL     OW 8367   1.493   6.132   5.518 -0.1706 -0.1069  0.5853
 2730SOL    HW1 8368   1.464   6.218   5.477 -0.0097 -0.2643  0.1316
 2730SOL    HW2 8369   1.526   6.148   5.611  2.3220  0.7679 -0.3601
 2731SOL     OW 8370   2.696   7.680   2.021 -0.3860 -0.2423  0.1970
 2731SOL    HW1 8371   2.738   7.622   2.090  0.8803  0.6586  0.2079
 2731SOL    HW2 8372   2.733   7.657   1.931 -0.0682  0.3776  0.1701
 2732SOL     OW 8373   3.712   2.468   0.882 -0.0848  0.0190 -0.0143
 2732SOL    HW1 8374   3.675   2.404   0.815 -0.6950 -0.2714  0.5871
 2732SOL    HW2 8375   3.810   2.481   0.865 -0.4213  0.7416 -1.5796
 2733SOL     OW 8376   6.153   5.048   5.852 -0.1718 -0.1044  0.0603
 2733SOL    HW1 8377   6.085   5.020   5.921 -0.6714 -0.9462 -0.7410
 2733SOL    HW2 8378   6.237   4.996   5.866  0.2890  0.8343  0.9641
 2734SOL     OW 8379   1.783   5.859   3.886 -0.4361  0.1288 -0.5934
 2734SOL    HW1 8380   1.786   5.768   3.926 -2.7446 -0.1667 -0.9806
 2734SOL    HW2 8381   1.804   5.853   3.788  1.6732  0.3806 -0.2129
 2735SOL     OW 8382   0.965   3.308   6.898 -0.0880  0.1295  0.1559
 2735SOL    HW1 8383   0.899   3.379   6.922  0.6769  1.0464 -0.3871
 2735SOL    HW2 8384   0.923   3.218   6.909 -0.9702  0.6520  1.1611
 2736SOL     OW 8385   1.287   5.339   5.386  0.2571 -0.2063  0.4161
 2736SOL    HW1 8386   1.234   5.294   5.457 -0.9711  1.5081  0.6338
 2736SOL    HW2 8387   1.384   5.338   5.411  0.1251 -1.6208  0.9772
 2737SOL     OW 8388   5.623   3.950   0.092 -0.1955  0.1464  0.0409
 2737SOL    HW1 8389   5.686   3.928   0.167  0.0233  0.8415  0.0700
 2737SOL    HW2 8390   5.669   3.935   0.005  0.7937  2.6936  0.0518
 2738SOL     OW 8391   5.429   4.864   1.515 -0.7229  0.6184  0.1715
 2738SOL    HW1 8392   5.430   4.765   1.503 -1.8380  0.2544  2.4919
 2738SOL    HW2 8393   5.522   4.900   1.514 -0.2082 -0.6618  0.6564
 2739SOL     OW 8394   7.051   3.950   8.600 -0.1612  0.1247  0.0747
 2739SOL    HW1 8395   7.028   4.012   8.675  0.0067 -0.3667  0.5434
 2739SOL    HW2 8396   6.989   3.872   8.601  0.7722 -0.6423  0.6533
 2740SOL     OW 8397   7.388   6.839   4.454  0.2328  0.0468  0.3033
 2740SOL    HW1 8398   7.391   6.871   4.549 -0.9073 -3.6406  1.7583
 2740SOL    HW2 8399   7.295   6.810   4.432  0.6205  0.2362 -1.7867
 2741SOL     OW 8400   8.423   1.807   3.622  0.1252  0.5189  0.1517
 2741SOL    HW1 8401   8.490   1.880   3.615  0.2318  0.5401  1.1902
 2741SOL    HW2 8402   8.350   1.821   3.555  1.4418  0.1550 -1.4284
 2742SOL     OW 8403   6.213   4.296   4.299 -0.5660  0.3474 -0.4063
 2742SOL    HW1 8404   6.176   4.240   4.225  0.4322 -0.8393 -0.0632
 2742SOL    HW2 8405   6.139   4.334   4.353 -1.3011 -0.8286 -0.5423
 2743SOL     OW 8406   0.702   0.378   1.331  1.1613 -0.2823 -1.1658
 2743SOL    HW1 8407   0.739   0.289   1.359  0.6271 -0.1543  0.0215
 2743SOL    HW2 8408   0.616   0.365   1.282  1.6731 -0.4673 -2.0371
 2744SOL     OW 8409   7.260   1.809   0.158 -0.3446 -0.0398 -0.3414
 2744SOL    HW1 8410   7.300   1.746   0.224 -0.6296 -0.1620 -0.2865
 2744SOL    HW2 8411   7.228   1.891   0.205 -1.5061 -0.5726 -0.1706
 2745SOL     OW 8412   8.218   5.444   7.845  0.6548 -0.2171 -0.3557
 2745SOL    HW1 8413   8.313   5.431   7.876  0.8265  1.3289 -0.1761
 2745SOL    HW2 8414   8.213   5.525   7.786 -0.3997 -0.8303 -1.1325
 2746SOL     OW 8415   2.722   6.034   8.344  1.0310 -0.0299  0.0926
 2746SOL    HW1 8416   2.808   6.080   8.367  0.2468  1.3070  0.4992
 2746SOL    HW2 8417   2.724   5.940   8.377  1.9577  0.2901  0.9965
 2747SOL     OW 8418   0.085   4.064   5.461  0.0274  0.5263 -0.2772
 2747SOL    HW1 8419   0.037   3.977   5.472 -1.7041  1.2556 -1.6904
 2747SOL    HW2 8420   0.184   4.049   5.470 -0.3359 -1.2433  1.3071
 2748SOL     OW 8421   8.336   3.419   7.946 -0.4529  0.2543  0.2897
 2748SOL    HW1 8422   8.385   3.405   7.860 -1.4502  0.4341 -0.3319
 2748SOL    HW2 8423   8.343   3.336   8.002  2.4931  1.0537  1.2857
 2749SOL     OW 8424   5.084   7.601   0.962  0.4341 -0.3023  0.2600
 2749SOL    HW1 8425   5.045   7.564   1.046 -0.5068 -0.4481 -0.2206
 2749SOL    HW2 8426   5.165   7.549   0.936  1.3433  0.3835  1.6069
 2750SOL     OW 8427   0.075   7.814   7.937  0.0587 -0.0582  0.8144
 2750SOL    HW1 8428   0.093   7.910   7.917 -0.1526 -0.1211  0.3090
 2750SOL    HW2 8429   0.136   7.783   8.009 -0.3154  0.6372  1.4475
 2751SOL     OW 8430   7.473   1.956   1.765  0.6080  0.1001 -0.4287
 2751SOL    HW1 8431   7.388   1.969   1.816  0.9421  0.0980  0.1445
 2751SOL    HW2 8432   7.534   2.034   1.783  1.2256 -0.5155  0.1936
 2752SOL     OW 8433   3.446   4.866   8.257 -0.1977  0.2331 -0.3513
 2752SOL    HW1 8434   3.401   4.812   8.186 -0.7319  0.3647 -0.1230
 2752SOL    HW2 8435   3.476   4.805   8.331  0.1131  0.1280 -0.5659
 2753SOL     OW 8436   0.209   8.475   1.678 -0.5018 -0.1170 -0.2248
 2753SOL    HW1 8437   0.199   8.508   1.584  0.9136  0.4787 -0.1946
 2753SOL    HW2 8438   0.146   8.524   1.738 -2.2117 -1.2765 -1.0085
 2754SOL     OW 8439   1.046   0.826   0.203  0.6841  0.5167  0.4632
 2754SOL    HW1 8440   1.114   0.898   0.190 -0.5343  1.3319 -1.9901
 2754SOL    HW2 8441   0.993   0.814   0.119 -0.7066 -1.6697  1.5506
 2755SOL     OW 8442   6.031   1.532   4.027 -0.4621  0.7717 -0.5243
 2755SOL    HW1 8443   6.115   1.551   4.078 -0.1315 -1.6852  0.0263
 2755SOL    HW2 8444   6.053   1.514   3.931 -0.5649  1.6235 -0.7077
 2756SOL     OW 8445   0.150   0.970   8.707 -0.6185 -0.4272 -0.2930
 2756SOL    HW1 8446   0.062   1.015   8.724 -0.7648 -1.2084  1.1348
 2756SOL    HW2 8447   0.190   0.941   8.793  0.5804 -0.9831 -1.0085
 2757SOL     OW 8448   0.779   1.019   3.364  0.5126  0.4348 -0.3652
 2757SOL    HW1 8449   0.878   1.019   3.350  0.5213 -0.0683 -0.3153
 2757SOL    HW2 8450   0.749   0.928   3.392 -0.2720 -0.0278 -2.5591
 2758SOL     OW 8451   8.291   8.234   3.746  0.2400  0.7257 -0.1270
 2758SOL    HW1 8452   8.270   8.297   3.671 -0.6480  0.1715 -0.3606
 2758SOL    HW2 8453   8.335   8.284   3.820 -0.2018  1.5658 -0.4174
 2759SOL     OW 8454   3.984   4.824   0.266  0.2865  0.2355 -1.0258
 2759SOL    HW1 8455   3.986   4.865   0.357  2.9697 -0.3044 -0.7613
 2759SOL    HW2 8456   3.897   4.846   0.221  0.3293  3.6042  0.2434
 2760SOL     OW 8457   7.250   7.306   1.154 -0.4281  0.1212 -0.0348
 2760SOL    HW1 8458   7.226   7.211   1.170  0.4190 -0.1195 -0.1488
 2760SOL    HW2 8459   7.322   7.312   1.085  0.5253  0.7382  0.9733
 2761SOL     OW 8460   0.618   8.730   5.415  0.0907 -0.2030 -0.9489
 2761SOL    HW1 8461   0.615   8.632   5.437  0.4819 -0.0913 -0.3456
 2761SOL    HW2 8462   0.710   8.754   5.385  0.3316  0.2088  0.0802
 2762SOL     OW 8463   3.893   6.674   6.979  0.3791  0.4681  0.1373
 2762SOL    HW1 8464   3.815   6.657   6.918  1.4160  1.4015 -1.5259
 2762SOL    HW2 8465   3.880   6.762   7.026 -1.3198 -1.0871  2.8328
 2763SOL     OW 8466   8.536   2.166   5.529  0.0525 -0.8499 -0.3730
 2763SOL    HW1 8467   8.523   2.172   5.430 -0.8894  0.3560 -0.1992
 2763SOL    HW2 8468   8.452   2.196   5.575  0.9221 -0.1698  0.7926
 2764SOL     OW 8469   1.419   4.783   1.803 -0.6861 -0.0091 -0.4774
 2764SOL    HW1 8470   1.507   4.779   1.850 -0.9494  0.4732  0.0727
 2764SOL    HW2 8471   1.350   4.821   1.865 -0.7735  1.8379 -1.6050
 2765SOL     OW 8472   0.200   1.718   2.955 -0.5732  0.1364 -0.0137
 2765SOL    HW1 8473   0.216   1.634   2.903 -0.4573 -0.2503  0.6286
 2765SOL    HW2 8474   0.211   1.699   3.053  1.1523  1.2736  0.0606
 2766SOL     OW 8475   3.366   5.113   0.659  0.3165 -0.4940 -0.3608
 2766SOL    HW1 8476   3.327   5.178   0.724 -0.8897 -0.5683 -0.9749
 2766SOL    HW2 8477   3.310   5.110   0.576  1.2934 -1.0879 -1.0358
 2767SOL     OW 8478   8.321   8.264   6.530  0.1883 -0.1027  0.2720
 2767SOL    HW1 8479   8.398   8.326   6.540  0.3119 -0.3767  1.1237
 2767SOL    HW2 8480   8.353   8.176   6.496 -0.2262  0.8124 -2.7355
 2768SOL     OW 8481   3.937   8.713   0.101 -0.2507  0.3926  0.5474
 2768SOL    HW1 8482   4.001   8.748   0.169 -0.3665 -0.7791  1.2886
 2768SOL    HW2 8483   3.851   8.690   0.145 -1.4276  2.4836 -0.5350
 2769SOL     OW 8484   4.091   3.450   0.268 -0.7136 -0.2504 -0.0956
 2769SOL    HW1 8485   4.020   3.424   0.333  0.0664 -1.2241  0.4012
 2769SOL    HW2 8486   4.124   3.369   0.221  1.1692 -0.0974  0.8455
 2770SOL     OW 8487   2.553   8.627   7.494  0.0504  0.3852 -0.1385
 2770SOL    HW1 8488   2.634   8.625   7.435  1.2396  1.6222  1.3499
 2770SOL    HW2 8489   2.492   8.701   7.465 -0.1599 -0.0486 -0.7966
 2771SOL     OW 8490   3.715   6.524   0.474  0.0062 -0.8143 -0.1645
 2771SOL    HW1 8491   3.720   6.465   0.554 -0.8941 -0.5475  0.1010
 2771SOL    HW2 8492   3.792   6.587   0.474 -1.1069  0.6538  1.6851
 2772SOL     OW 8493   0.864   0.776   2.996 -0.1617  0.3279  0.2517
 2772SOL    HW1 8494   0.914   0.829   2.927 -0.6040 -1.2614 -1.3828
 2772SOL    HW2 8495   0.858   0.829   3.081  1.5426  1.8320 -0.4884
 2773SOL     OW 8496   3.610   7.600   0.637  0.2272 -0.2807 -0.4816
 2773SOL    HW1 8497   3.539   7.652   0.684 -1.9812 -0.7404 -3.0099
 2773SOL    HW2 8498   3.580   7.505   0.628  2.2048 -1.0072  0.2696
 2774SOL     OW 8499   8.617   5.930   1.629  0.4266  0.0457 -0.4498
 2774SOL    HW1 8500   8.605   5.837   1.594 -1.0337  0.3233 -0.7550
 2774SOL    HW2 8501   8.529   5.977   1.629  0.9106  1.0268  0.8733
 2775SOL     OW 8502   4.502   0.357   1.102  0.9348 -0.1457  0.2592
 2775SOL    HW1 8503   4.571   0.288   1.124  0.9513 -0.0388  0.5361
 2775SOL    HW2 8504   4.411   0.321   1.120  0.9207 -0.2441  0.0045
 2776SOL     OW 8505   1.196   3.020   5.512 -0.1386 -0.3052 -0.2065
 2776SOL    HW1 8506   1.219   2.933   5.469 -2.7596 -0.4252 -1.5161
 2776SOL    HW2 8507   1.270   3.086   5.495 -0.2012 -0.9060 -3.2932
 2777SOL     OW 8508   1.417   1.336   4.819  0.3181 -0.1080 -0.1970
 2777SOL    HW1 8509   1.502   1.285   4.807 -0.3071 -1.2381  0.0994
 2777SOL    HW2 8510   1.429   1.429   4.783  1.6177 -0.3000 -0.3087
 2778SOL     OW 8511   5.446   8.547   4.332 -0.0283 -0.3317 -0.5293
 2778SOL    HW1 8512   5.355   8.525   4.297  0.1120 -1.1301 -0.4105
 2778SOL    HW2 8513   5.481   8.471   4.386  1.4377 -0.8115 -2.0359
 2779SOL     OW 8514   5.016   6.839   6.047  0.9733  0.0668 -0.0576
 2779SOL    HW1 8515   4.933   6.784   6.037  0.9939 -0.1016  0.6228
 2779SOL    HW2 8516   5.095   6.778   6.059  1.2525  0.2175 -1.0319
 2780SOL     OW 8517   1.227   2.166   2.687  0.2540 -0.1355 -0.3757
 2780SOL    HW1 8518   1.283   2.090   2.654  1.2198 -0.7410  2.3871
 2780SOL    HW2 8519   1.285   2.234   2.731 -0.9514  0.3671  0.4946
 2781SOL     OW 8520   4.201   0.709   2.223 -0.6487  0.6944 -0.1890
 2781SOL    HW1 8521   4.240   0.673   2.139  1.0689  0.4442  0.6769
 2781SOL    HW2 8522   4.137   0.642   2.261  1.6634 -1.0682  0.8143
 2782SOL     OW 8523   6.114   4.128   3.286  0.1620  0.1653  0.1985
 2782SOL    HW1 8524   6.063   4.120   3.201  0.3348  0.4427  0.0674
 2782SOL    HW2 8525   6.051   4.119   3.363  0.2643 -2.0233  0.0913
 2783SOL     OW 8526   8.775   0.541   8.665  0.4245  0.3943  0.3525
 2783SOL    HW1 8527   8.810   0.473   8.729  0.6248  1.5183  1.4683
 2783SOL    HW2 8528   8.676   0.530   8.654  0.5376 -0.4183  0.0797
 2784SOL     OW 8529   4.023   5.514   8.103 -0.1045  0.6039  0.2162
 2784SOL    HW1 8530   3.939   5.565   8.121  0.8867  1.9331  1.2078
 2784SOL    HW2 8531   4.032   5.441   8.171  0.5884  1.8148  1.4754
 2785SOL     OW 8532   1.586   3.674   8.532 -0.0139 -0.0477  0.6329
 2785SOL    HW1 8533   1.592   3.726   8.617 -1.6276 -0.4844  1.0481
 2785SOL    HW2 8534   1.566   3.736   8.456  2.2035  0.4502  0.3920
 2786SOL     OW 8535   0.936   7.525   8.102  0.1675 -0.4581  0.1049
 2786SOL    HW1 8536   0.922   7.620   8.130 -0.5760  0.0586 -1.8226
 2786SOL    HW2 8537   0.849   7.486   8.070  1.3255  0.3324 -5.0094
 2787SOL     OW 8538   2.554   4.051   2.822 -0.0653 -0.2251  0.0546
 2787SOL    HW1 8539   2.464   4.084   2.795 -1.1270 -1.5283  1.7978
 2787SOL    HW2 8540   2.620   4.126   2.815 -1.5697  1.1761  0.1629
 2788SOL     OW 8541   8.313   0.422   8.118 -0.1865  0.1543  0.4193
 2788SOL    HW1 8542   8.278   0.331   8.141 -0.6146 -0.2730 -1.6748
 2788SOL    HW2 8543   8.387   0.413   8.051 -1.0446  1.3689 -0.7496
 2789SOL     OW 8544   0.674   1.441   8.844 -0.5470 -0.1724  0.4086
 2789SOL    HW1 8545   0.600   1.443   8.777  0.0032  1.5165 -0.2050
 2789SOL    HW2 8546   0.720   1.530   8.846 -0.8695  0.0272  3.4095
 2790SOL     OW 8547   0.924   1.418   8.342 -0.3077 -0.0266  0.3328
 2790SOL    HW1 8548   0.864   1.486   8.299 -0.7341  0.8252  2.1560
 2790SOL    HW2 8549   1.019   1.448   8.333 -0.2613 -0.5876 -1.2165
 2791SOL     OW 8550   3.652   3.450   6.224  0.5813  0.1458 -0.3019
 2791SOL    HW1 8551   3.686   3.405   6.306 -0.2305  0.0067 -0.0364
 2791SOL    HW2 8552   3.582   3.517   6.249  0.8312  0.6164 -0.8186
 2792SOL     OW 8553   0.341   0.968   4.222  0.0395 -0.0569 -0.2439
 2792SOL    HW1 8554   0.426   1.006   4.185  0.4708  0.1431  0.9033
 2792SOL    HW2 8555   0.321   1.011   4.310 -1.7609  0.5817 -0.9219
 2793SOL     OW 8556   4.238   3.713   7.547 -0.2341  0.0099  0.2359
 2793SOL    HW1 8557   4.313   3.746   7.605 -0.4753  0.3573  0.3541
 2793SOL    HW2 8558   4.251   3.747   7.454 -0.1111 -0.1375  0.1991
 2794SOL     OW 8559   1.347   8.298   0.674 -0.4480  0.1642 -0.4127
 2794SOL    HW1 8560   1.334   8.375   0.612  0.0385  0.8519  0.3340
 2794SOL    HW2 8561   1.331   8.327   0.768 -2.6667 -1.2213 -0.2751
 2795SOL     OW 8562   3.904   4.269   5.515  0.1659  0.6234 -0.3377
 2795SOL    HW1 8563   3.963   4.194   5.485  1.7144  0.9473  1.6836
 2795SOL    HW2 8564   3.900   4.339   5.444  1.4476  0.1538 -0.9006
 2796SOL     OW 8565   4.009   3.878   6.410  0.0556 -0.1411  0.3988
 2796SOL    HW1 8566   3.981   3.904   6.318  1.7891 -1.6810 -0.6482
 2796SOL    HW2 8567   4.108   3.890   6.420 -0.1955  0.7189  2.3426
 2797SOL     OW 8568   7.626   3.070   2.242  0.0467 -0.2357 -0.8847
 2797SOL    HW1 8569   7.718   3.031   2.250  0.6928  0.9435 -2.1015
 2797SOL    HW2 8570   7.602   3.118   2.326 -0.4554 -2.5249  0.3497
 2798SOL     OW 8571   2.644   3.822   5.344  0.4236  0.7222  0.3611
 2798SOL    HW1 8572   2.607   3.748   5.399  0.3055  0.9678  0.6136
 2798SOL    HW2 8573   2.660   3.789   5.250 -1.3078  0.8484 -0.0093
 2799SOL     OW 8574   0.566   2.535   5.601 -0.3429  0.5197 -0.2930
 2799SOL    HW1 8575   0.593   2.577   5.688  2.2748 -2.3313  0.4595
 2799SOL    HW2 8576   0.492   2.470   5.617 -2.9553  3.0974 -1.1031
 2800SOL     OW 8577   2.025   7.593   7.722  0.5689  1.5137  0.2769
 2800SOL    HW1 8578   2.067   7.526   7.783  1.1109  2.8746  1.4750
 2800SOL    HW2 8579   1.943   7.554   7.680  1.1532 -0.0412  0.5395
 2801SOL     OW 8580   8.614   3.545   5.715 -0.5776 -0.1724 -0.1566
 2801SOL    HW1 8581   8.623   3.618   5.781 -0.5815 -0.7977  0.5485
 2801SOL    HW2 8582   8.604   3.457   5.762 -0.5749 -0.6335 -0.9776
 2802SOL     OW 8583   7.684   4.750   5.752  0.0957 -0.3344 -0.4416
 2802SOL    HW1 8584   7.783   4.742   5.755  0.3191  1.8959 -0.2390
 2802SOL    HW2 8585   7.643   4.690   5.821  1.2505 -1.6022 -0.8283
 2803SOL     OW 8586   3.610   3.935   1.157  0.1900  0.4949  0.3262
 2803SOL    HW1 8587   3.537   3.987   1.201 -0.3945  0.8313 -0.9839
 2803SOL    HW2 8588   3.695   3.988   1.161 -0.4714  1.7464 -1.2784
 2804SOL     OW 8589   5.623   5.557   0.385  0.0866  0.4596  0.3061
 2804SOL    HW1 8590   5.691   5.610   0.333  1.0851 -0.9521  0.1295
 2804SOL    HW2 8591   5.588   5.483   0.328  0.1757 -0.2789  1.1901
 2805SOL     OW 8592   4.259   7.648   4.908  0.1711  0.0087  0.4376
 2805SOL    HW1 8593   4.276   7.599   4.994 -0.5186  1.1288  1.2378
 2805SOL    HW2 8594   4.222   7.739   4.928  2.3676  1.3144 -0.9271
 2806SOL     OW 8595   4.819   3.668   8.739  0.0035 -0.2101 -0.7003
 2806SOL    HW1 8596   4.843   3.572   8.725 -0.1598 -0.4194  0.3849
 2806SOL    HW2 8597   4.720   3.677   8.742  0.0239 -0.2102  0.4268
 2807SOL     OW 8598   8.622   3.760   0.100  0.3852  0.2567  0.1623
 2807SOL    HW1 8599   8.710   3.714   0.092  0.3994  0.6300 -2.6055
 2807SOL    HW2 8600   8.551   3.706   0.053 -0.2529  1.4094 -0.2346
 2808SOL     OW 8601   6.482   4.562   0.663  0.4248  0.2718 -0.2336
 2808SOL    HW1 8602   6.512   4.568   0.568  0.9478  2.5843  0.0104
 2808SOL    HW2 8603   6.531   4.488   0.709  0.0088 -1.0116 -1.7917
 2809SOL     OW 8604   4.335   6.270   2.148  0.3760 -0.0215 -0.3784
 2809SOL    HW1 8605   4.397   6.192   2.135  1.3999  0.7361 -0.1612
 2809SOL    HW2 8606   4.308   6.306   2.059  1.0848  0.2895 -0.4697
 2810SOL     OW 8607   4.659   7.063   8.830  0.1739  0.7534 -0.1660
 2810SOL    HW1 8608   4.585   7.062   8.763  1.3822  0.5419 -1.5619
 2810SOL    HW2 8609   4.657   6.979   8.883 -1.0463  1.0999  0.3686
 2811SOL     OW 8610   8.649   2.121   2.629  0.7908 -0.4757 -0.0652
 2811SOL    HW1 8611   8.622   2.043   2.686  0.6440 -1.3835 -1.3189
 2811SOL    HW2 8612   8.633   2.206   2.678 -0.9998 -1.1443  0.5915
 2812SOL     OW 8613   3.582   7.773   6.452 -0.2806  0.2032 -0.4054
 2812SOL    HW1 8614   3.498   7.768   6.399 -0.0861 -0.2895 -0.6747
 2812SOL    HW2 8615   3.564   7.743   6.546 -0.0952 -1.3929 -0.8495
 2813SOL     OW 8616   0.290   7.108   2.515  0.1572 -0.5631  0.1092
 2813SOL    HW1 8617   0.207   7.110   2.572 -1.2943  1.8329 -1.8500
 2813SOL    HW2 8618   0.294   7.020   2.467 -1.0785 -0.8613  0.4864
 2814SOL     OW 8619   2.505   7.009   5.476 -0.6354  0.1449 -0.4616
 2814SOL    HW1 8620   2.464   6.982   5.563 -0.9728  0.2303 -0.5887
 2814SOL    HW2 8621   2.602   6.987   5.476 -0.9091 -1.1686 -0.5889
 2815SOL     OW 8622   0.619   4.436   2.690  0.2345  0.1935 -0.2525
 2815SOL    HW1 8623   0.641   4.397   2.600  0.1136  0.7315 -0.5198
 2815SOL    HW2 8624   0.681   4.512   2.709  0.8668 -0.4976  0.5303
 2816SOL     OW 8625   2.990   1.922   7.835  0.2204  0.1578  0.0468
 2816SOL    HW1 8626   2.915   1.984   7.814  1.0178  1.0380 -0.2819
 2816SOL    HW2 8627   2.958   1.828   7.831 -0.9622  0.5315  0.3402
 2817SOL     OW 8628   4.227   6.644   0.443  0.1480 -0.1572 -0.0131
 2817SOL    HW1 8629   4.282   6.726   0.452  0.3525 -0.4754  2.2130
 2817SOL    HW2 8630   4.223   6.596   0.531 -0.1520 -2.4211 -1.1663
 2818SOL     OW 8631   8.380   0.314   7.669 -0.1311 -0.0572 -0.3571
 2818SOL    HW1 8632   8.308   0.377   7.698  1.1351  0.8357  1.0337
 2818SOL    HW2 8633   8.423   0.274   7.750  0.5279 -1.0670 -1.1795
 2819SOL     OW 8634   5.730   1.606   2.537 -0.1499 -0.2963 -0.3042
 2819SOL    HW1 8635   5.672   1.609   2.455  0.4915 -0.2603 -0.7703
 2819SOL    HW2 8636   5.820   1.571   2.512 -0.4872 -2.0363  0.7329
 2820SOL     OW 8637   7.260   8.318   3.901 -0.5348  0.4522  0.0369
 2820SOL    HW1 8638   7.216   8.239   3.857  3.5297 -2.3672  0.4763
 2820SOL    HW2 8639   7.286   8.385   3.831 -2.5324  0.6770 -0.5551
 2821SOL     OW 8640   4.645   5.815   7.229  0.8659  0.2029  0.4526
 2821SOL    HW1 8641   4.702   5.782   7.305  0.5053 -0.9581  0.2443
 2821SOL    HW2 8642   4.703   5.857   7.159  1.4195 -0.4753  0.4947
 2822SOL     OW 8643   5.820   7.504   0.857  0.3529 -0.0725  0.0019
 2822SOL    HW1 8644   5.806   7.581   0.919  0.1163 -1.7333  2.1425
 2822SOL    HW2 8645   5.913   7.468   0.869 -0.1293 -1.2248  0.4009
 2823SOL     OW 8646   3.376   0.973   8.757  0.3089 -0.7056  0.0057
 2823SOL    HW1 8647   3.400   1.055   8.809  1.0862 -1.7339  1.3272
 2823SOL    HW2 8648   3.325   0.999   8.676 -1.1103  0.9710  1.3551
 2824SOL     OW 8649   3.976   8.240   5.760  0.4786 -0.3465  0.1918
 2824SOL    HW1 8650   4.046   8.293   5.713  0.4143 -0.2237  0.2335
 2824SOL    HW2 8651   3.993   8.240   5.858  0.8940 -1.0218  0.1224
 2825SOL     OW 8652   3.875   2.516   3.667 -0.6183 -0.1896  0.2872
 2825SOL    HW1 8653   3.851   2.419   3.664  0.2193 -0.3924 -0.0613
 2825SOL    HW2 8654   3.941   2.532   3.740 -1.2953  0.2564  0.8211
 2826SOL     OW 8655   1.479   7.026   6.739 -0.7381  0.0130  0.4577
 2826SOL    HW1 8656   1.500   7.031   6.836  0.9453 -0.9716  0.1648
 2826SOL    HW2 8657   1.450   6.934   6.715  1.4844 -0.5166 -0.4364
 2827SOL     OW 8658   5.319   6.508   2.355 -0.0191 -0.2904 -0.5251
 2827SOL    HW1 8659   5.257   6.444   2.310  1.3270 -0.4534 -2.2705
 2827SOL    HW2 8660   5.369   6.460   2.428 -2.0304 -0.0925  1.0733
 2828SOL     OW 8661   2.841   7.052   6.538 -0.1639  0.1587 -0.1152
 2828SOL    HW1 8662   2.879   6.991   6.469  0.8043 -0.0159  0.5577
 2828SOL    HW2 8663   2.743   7.033   6.548 -0.3779  0.3244 -1.5658
 2829SOL     OW 8664   1.255   0.130   2.476 -0.2515  0.0715 -0.3616
 2829SOL    HW1 8665   1.266   0.197   2.549 -2.2338  1.1827 -1.0061
 2829SOL    HW2 8666   1.164   0.089   2.482  0.1851 -1.0684 -1.2159
 2830SOL     OW 8667   6.162   2.571   1.595  0.2750  0.1305  0.0381
 2830SOL    HW1 8668   6.240   2.517   1.564  0.3488  0.7217 -0.8298
 2830SOL    HW2 8669   6.190   2.666   1.611 -0.3142  0.4176 -0.5615
 2831SOL     OW 8670   4.406   1.457   8.792 -0.2700 -0.1150 -0.5849
 2831SOL    HW1 8671   4.321   1.425   8.833  0.1430 -1.8528 -0.9891
 2831SOL    HW2 8672   4.409   1.429   8.695  1.4554 -1.6569 -0.1643
 2832SOL     OW 8673   5.289   1.805   7.895  0.1539 -0.4394 -0.2031
 2832SOL    HW1 8674   5.239   1.891   7.885  0.5392 -0.2295 -0.3342
 2832SOL    HW2 8675   5.374   1.822   7.945 -1.2250 -1.2580  2.6322
 2833SOL     OW 8676   4.314   3.210   3.225 -0.5665  0.5111  0.2154
 2833SOL    HW1 8677   4.384   3.190   3.293  0.8867  1.8553 -0.7948
 2833SOL    HW2 8678   4.244   3.139   3.226  0.5955 -0.6571  1.5645
 2834SOL     OW 8679   7.716   4.966   2.488  0.1479  0.4507 -0.4453
 2834SOL    HW1 8680   7.778   4.966   2.409  1.7614  0.4637  0.7850
 2834SOL    HW2 8681   7.676   4.875   2.498 -0.5265  0.5927 -1.5846
 2835SOL     OW 8682   7.089   8.701   0.303 -0.0592  0.1221  0.3212
 2835SOL    HW1 8683   7.132   8.792   0.303  1.4034 -0.5274 -0.3567
 2835SOL    HW2 8684   7.093   8.662   0.395 -2.7500  1.6080  1.1646
 2836SOL     OW 8685   0.858   2.471   3.450 -0.4653 -0.5377  0.4264
 2836SOL    HW1 8686   0.846   2.425   3.362  0.9754 -1.8304  0.8640
 2836SOL    HW2 8687   0.852   2.404   3.524  3.0393 -0.4004  1.0119
 2837SOL     OW 8688   3.660   0.246   6.461  0.4728 -0.5843  0.1567
 2837SOL    HW1 8689   3.688   0.158   6.423  0.3546 -0.7158  0.3700
 2837SOL    HW2 8690   3.561   0.256   6.452  0.4625 -0.5548  0.2981
 2838SOL     OW 8691   3.036   3.449   3.071 -0.2072 -0.2825 -0.2043
 2838SOL    HW1 8692   3.009   3.426   3.164 -1.1440 -0.6457 -0.5538
 2838SOL    HW2 8693   2.988   3.389   3.007  0.6407 -0.2267 -0.9121
 2839SOL     OW 8694   1.007   1.715   1.874 -0.2280  0.2392 -0.1229
 2839SOL    HW1 8695   1.031   1.749   1.783  0.2859 -1.2497 -0.5633
 2839SOL    HW2 8696   1.089   1.708   1.930 -0.3442 -0.1340  0.0034
 2840SOL     OW 8697   1.905   5.997   7.869  0.5550 -0.2032  0.4284
 2840SOL    HW1 8698   1.967   5.933   7.823  1.5675 -0.4567  2.0571
 2840SOL    HW2 8699   1.956   6.077   7.900 -0.0179 -0.1696  1.3459
 2841SOL     OW 8700   5.122   4.005   0.562  0.4363  0.0009  0.2883
 2841SOL    HW1 8701   5.204   3.949   0.547 -0.5779 -1.6071  0.5320
 2841SOL    HW2 8702   5.134   4.093   0.516  2.6367  0.1594  1.0339
 2842SOL     OW 8703   5.956   6.961   6.391 -0.2268  0.1893  0.0310
 2842SOL    HW1 8704   5.883   7.025   6.366  0.1589 -0.1617 -2.2088
 2842SOL    HW2 8705   5.944   6.875   6.342  0.7578 -0.4967  0.9381
 2843SOL     OW 8706   4.207   3.993   5.717  0.5873  0.1750  0.0850
 2843SOL    HW1 8707   4.198   4.009   5.815  1.0653 -1.3537  0.4056
 2843SOL    HW2 8708   4.193   4.079   5.668 -0.2508  0.8551  1.4434
 2844SOL     OW 8709   3.919   5.612   0.323 -0.1935 -0.6274 -0.3956
 2844SOL    HW1 8710   3.850   5.605   0.252  0.0894 -0.3643 -0.7021
 2844SOL    HW2 8711   3.942   5.708   0.338  0.7219 -0.7533 -0.9090
 2845SOL     OW 8712   6.924   0.471   2.243  0.9830  0.0225  0.5525
 2845SOL    HW1 8713   6.998   0.439   2.303  0.7627  0.3403  1.0002
 2845SOL    HW2 8714   6.956   0.469   2.148  0.6963 -2.3493  0.4330
 2846SOL     OW 8715   5.048   7.941   2.668  0.1342 -0.0202  0.2108
 2846SOL    HW1 8716   4.995   7.940   2.753  0.7101 -1.8733  0.5964
 2846SOL    HW2 8717   5.036   7.855   2.620  1.3927  0.2127 -0.5785
 2847SOL     OW 8718   8.346   7.627   5.811  0.0451  0.3918 -0.1207
 2847SOL    HW1 8719   8.280   7.569   5.859 -0.2950 -0.7431 -1.8551
 2847SOL    HW2 8720   8.300   7.711   5.781  0.0496  0.7240  0.7563
 2848SOL     OW 8721   1.973   5.832   0.135 -0.4563 -0.1517  0.1810
 2848SOL    HW1 8722   2.071   5.834   0.114 -0.6617  0.0552 -0.7853
 2848SOL    HW2 8723   1.954   5.756   0.197  0.5747  0.8051  1.7477
 2849SOL     OW 8724   2.263   2.310   2.920  0.2375 -0.2750  0.2470
 2849SOL    HW1 8725   2.276   2.283   3.015 -0.3172  1.2914  0.7962
 2849SOL    HW2 8726   2.352   2.311   2.874  0.6705  0.0508  1.0660
 2850SOL     OW 8727   4.061   0.649   4.929 -0.2994 -0.2379 -0.2035
 2850SOL    HW1 8728   3.966   0.667   4.956 -1.1006 -2.5455 -1.2500
 2850SOL    HW2 8729   4.114   0.625   5.010 -0.4603  1.4066  0.4462
 2851SOL     OW 8730   4.430   4.195   0.204  0.3759  0.4061  0.1236
 2851SOL    HW1 8731   4.343   4.147   0.217 -0.9663  3.1448  2.2825
 2851SOL    HW2 8732   4.497   4.159   0.270 -0.3194  0.7777  1.0593
 2852SOL     OW 8733   4.456   4.500   7.437 -0.2136  0.2988  0.4814
 2852SOL    HW1 8734   4.444   4.595   7.407 -0.6059 -0.2508 -1.2505
 2852SOL    HW2 8735   4.549   4.470   7.414 -0.9671 -0.5728 -1.6240
 2853SOL     OW 8736   0.224   6.522   7.315  0.4902 -0.3336  0.3060
 2853SOL    HW1 8737   0.175   6.609   7.311  0.9715 -0.0150  1.2096
 2853SOL    HW2 8738   0.168   6.451   7.272  0.0343  0.3842 -0.3213
 2854SOL     OW 8739   3.431   0.136   4.866  0.2715 -0.0081  0.2857
 2854SOL    HW1 8740   3.465   0.043   4.882 -0.0588 -0.2659 -0.4368
 2854SOL    HW2 8741   3.456   0.165   4.774  0.3247  0.5989  0.4915
 2855SOL     OW 8742   1.423   2.106   8.674 -0.1308 -0.6567 -0.1504
 2855SOL    HW1 8743   1.386   2.130   8.764  0.8646  0.5022 -0.0276
 2855SOL    HW2 8744   1.430   2.189   8.618 -1.4335 -1.4535 -1.5936
 2856SOL     OW 8745   1.505   4.127   6.746  0.7295  0.5911 -0.1013
 2856SOL    HW1 8746   1.509   4.134   6.845  2.4671  2.6172 -0.2243
 2856SOL    HW2 8747   1.431   4.065   6.719 -0.5246  0.8880  2.3905
 2857SOL     OW 8748   5.995   0.564   3.538 -0.3427 -0.5787 -0.1884
 2857SOL    HW1 8749   5.940   0.480   3.536  1.4312 -1.8001 -0.3258
 2857SOL    HW2 8750   5.943   0.637   3.582 -1.6653 -1.9678  0.6636
 2858SOL     OW 8751   5.788   4.905   4.032  0.5593 -0.0105 -0.1485
 2858SOL    HW1 8752   5.826   4.992   3.999  1.3471 -0.7370 -1.2277
 2858SOL    HW2 8753   5.763   4.848   3.954  0.9590 -1.1372  0.5286
 2859SOL     OW 8754   3.662   7.147   2.068 -0.0082  0.6204  0.1819
 2859SOL    HW1 8755   3.629   7.053   2.062  0.9117  0.2853  0.2638
 2859SOL    HW2 8756   3.761   7.148   2.080  0.0178  1.6036  0.0513
 2860SOL     OW 8757   0.369   2.294   7.302  0.3095 -0.1456  0.2664
 2860SOL    HW1 8758   0.465   2.321   7.293 -0.3669  1.7085 -2.6963
 2860SOL    HW2 8759   0.319   2.366   7.351 -0.0409  0.2504 -0.6492
 2861SOL     OW 8760   4.824   8.740   8.743  0.2044  0.0965  0.3482
 2861SOL    HW1 8761   4.746   8.678   8.735  2.0318 -2.3022  0.2092
 2861SOL    HW2 8762   4.860   8.762   8.652  1.2777 -0.9872  0.4848
 2862SOL     OW 8763   2.183   2.751   5.707  0.0742  0.1773  0.3338
 2862SOL    HW1 8764   2.173   2.665   5.757  0.9715 -0.7234 -0.9882
 2862SOL    HW2 8765   2.279   2.766   5.684  0.0917  2.0520  1.3691
 2863SOL     OW 8766   0.362   5.884   5.064  0.0124  0.4331  0.3810
 2863SOL    HW1 8767   0.283   5.883   5.125 -0.2111 -1.5219  0.1216
 2863SOL    HW2 8768   0.345   5.824   4.986  0.4898  2.4869 -1.4075
 2864SOL     OW 8769   6.631   1.633   3.939  0.1224  0.6161  0.8980
 2864SOL    HW1 8770   6.685   1.708   3.901 -1.7617  2.2904  1.3384
 2864SOL    HW2 8771   6.559   1.608   3.875  0.0882 -0.1118  1.2102
 2865SOL     OW 8772   7.750   7.707   3.501 -0.2635  0.2236 -0.0521
 2865SOL    HW1 8773   7.810   7.784   3.522  0.5080 -0.1365 -0.8854
 2865SOL    HW2 8774   7.792   7.651   3.430  0.2235 -2.2128  2.0403
 2866SOL     OW 8775   3.562   6.005   0.937  0.5493 -0.0597 -0.3384
 2866SOL    HW1 8776   3.501   5.999   0.858  0.4796 -2.1569 -0.1861
 2866SOL    HW2 8777   3.651   5.964   0.913  0.9530  0.4300  0.2974
 2867SOL     OW 8778   4.287   3.882   7.322  0.1416 -0.1555 -0.4577
 2867SOL    HW1 8779   4.208   3.910   7.267 -1.2368 -0.8714  1.0595
 2867SOL    HW2 8780   4.334   3.964   7.355  1.3967  0.3052 -3.1057
 2868SOL     OW 8781   1.951   0.668   3.945  0.3541  0.0500  0.0613
 2868SOL    HW1 8782   1.887   0.728   3.896  0.7579 -1.6192 -2.7107
 2868SOL    HW2 8783   2.040   0.712   3.950  0.4205  0.0895 -1.1576
 2869SOL     OW 8784   5.508   4.409   3.878  0.1996  0.5552  0.2618
 2869SOL    HW1 8785   5.489   4.403   3.976 -1.2967 -1.0840 -0.0838
 2869SOL    HW2 8786   5.581   4.345   3.854 -1.1746 -0.9612 -0.0500
 2870SOL     OW 8787   5.012   8.492   4.514  0.0808 -0.0541  0.5396
 2870SOL    HW1 8788   5.045   8.444   4.596 -1.5296 -1.0299  0.6664
 2870SOL    HW2 8789   4.948   8.564   4.542  0.3811  0.3465  0.1957
 2871SOL     OW 8790   1.661   0.922   7.973 -0.0032 -0.3890  0.0842
 2871SOL    HW1 8791   1.620   0.968   8.052  1.4552 -0.3658  0.8597
 2871SOL    HW2 8792   1.760   0.915   7.986 -0.0749 -3.2323 -0.2716
 2872SOL     OW 8793   5.001   0.315   3.941  0.2855  0.5769  0.5691
 2872SOL    HW1 8794   5.020   0.326   4.039 -0.9248  0.8895  0.7895
 2872SOL    HW2 8795   4.907   0.283   3.929  0.5781  0.0818 -0.4814
 2873SOL     OW 8796   8.517   0.188   2.948  0.7058  0.4743 -0.2760
 2873SOL    HW1 8797   8.552   0.124   2.880 -0.1261 -0.6135  0.3025
 2873SOL    HW2 8798   8.560   0.170   3.037  0.4587  0.7187 -0.1026
 2874SOL     OW 8799   5.926   0.000   0.117  0.6774 -0.0978 -0.0488
 2874SOL    HW1 8800   5.833  -0.005   0.081  0.2441  2.8588  0.3616
 2874SOL    HW2 8801   5.928  -0.033   0.211  0.5175 -2.1111 -0.7232
 2875SOL     OW 8802   8.390   5.009   3.337  0.8784 -0.2273 -0.4100
 2875SOL    HW1 8803   8.434   4.980   3.252 -0.0375  0.9255 -1.3187
 2875SOL    HW2 8804   8.290   5.000   3.327  0.8052 -1.6214  1.1562
 2876SOL     OW 8805   1.043   0.867   2.180  0.0042 -0.1536 -0.1013
 2876SOL    HW1 8806   1.141   0.881   2.197  0.0875 -0.3565 -0.4129
 2876SOL    HW2 8807   1.025   0.871   2.082 -0.1907 -0.8300 -0.0989
 2877SOL     OW 8808   6.554   0.031   3.920  0.7032  0.2365  0.1239
 2877SOL    HW1 8809   6.597   0.120   3.905  2.3685 -0.5023  0.2867
 2877SOL    HW2 8810   6.555  -0.022   3.836 -1.6111  0.8699 -0.3650
 2878SOL     OW 8811   1.882   7.861   3.710  0.1795  0.1358 -0.7116
 2878SOL    HW1 8812   1.855   7.774   3.670 -0.8738 -1.0166  2.2350
 2878SOL    HW2 8813   1.955   7.847   3.777 -0.3001  1.4083  0.1391
 2879SOL     OW 8814   7.342   6.657   2.919  0.5020 -0.4094 -0.2368
 2879SOL    HW1 8815   7.314   6.601   2.840  0.9926 -1.3881  0.2651
 2879SOL    HW2 8816   7.292   6.627   3.000  1.9401 -1.2540  0.3824
 2880SOL     OW 8817   5.745   6.832   3.817 -0.5707  0.0533  0.2758
 2880SOL    HW1 8818   5.657   6.805   3.780  0.0581 -3.6131  1.0958
 2880SOL    HW2 8819   5.738   6.843   3.916 -0.2784  0.7385  0.2327
 2881SOL     OW 8820   8.775   5.432   8.424 -0.0764  0.1908  0.2891
 2881SOL    HW1 8821   8.687   5.391   8.448  0.3295 -1.2099 -0.4744
 2881SOL    HW2 8822   8.836   5.361   8.388  1.6864  0.9411  1.6056
 2882SOL     OW 8823   1.996   3.647   6.582 -0.1981  0.0423  0.5042
 2882SOL    HW1 8824   1.968   3.644   6.678  1.0557 -2.0777  0.8675
 2882SOL    HW2 8825   2.096   3.647   6.577 -0.2469 -0.7956 -0.8050
 2883SOL     OW 8826   4.906   6.788   8.861 -0.3666  0.2678 -0.0820
 2883SOL    HW1 8827   4.994   6.826   8.833 -0.2954 -0.9997 -1.7398
 2883SOL    HW2 8828   4.920   6.699   8.904 -0.8679 -0.3986 -1.2455
 2884SOL     OW 8829   7.233   6.767   6.544 -0.1036  0.1252  0.2698
 2884SOL    HW1 8830   7.219   6.764   6.445  0.2922 -1.9731  0.2240
 2884SOL    HW2 8831   7.323   6.730   6.566  0.7444  2.5779  1.3202
 2885SOL     OW 8832   3.702   2.482   7.648  0.2378 -0.1630  0.1624
 2885SOL    HW1 8833   3.681   2.439   7.736 -0.3476  0.1256  0.1676
 2885SOL    HW2 8834   3.730   2.412   7.582  1.9263 -0.2591  0.9160
 2886SOL     OW 8835   6.669   6.365   3.362  0.0426  0.2718  0.0675
 2886SOL    HW1 8836   6.717   6.435   3.416 -0.7464  1.3584 -0.5913
 2886SOL    HW2 8837   6.582   6.343   3.405 -0.1357  0.4013 -0.2188
 2887SOL     OW 8838   4.438   3.779   0.062  0.1221  0.7192 -0.4232
 2887SOL    HW1 8839   4.497   3.783  -0.019  0.2473 -0.5830 -0.4147
 2887SOL    HW2 8840   4.479   3.834   0.135  0.9987  0.3613 -0.6269
 2888SOL     OW 8841   4.825   1.742   3.362 -0.1260  0.1853  0.2111
 2888SOL    HW1 8842   4.747   1.697   3.407 -0.4596  1.3566  0.8269
 2888SOL    HW2 8843   4.861   1.814   3.421 -0.1834  1.3581 -1.1271
 2889SOL     OW 8844   0.706   3.397   6.923  0.3934 -0.0971 -0.4388
 2889SOL    HW1 8845   0.731   3.494   6.920  0.0559  0.0305  0.3936
 2889SOL    HW2 8846   0.619   3.387   6.972  0.9916 -0.9226  0.4905
 2890SOL     OW 8847   1.923   2.821   6.210  1.0349  0.1431  0.0244
 2890SOL    HW1 8848   1.968   2.880   6.276  1.9988  0.5502 -0.9767
 2890SOL    HW2 8849   1.991   2.768   6.160  0.2544 -0.9305  0.0605
 2891SOL     OW 8850   7.876   2.311   8.110 -0.0285 -0.0944 -0.0147
 2891SOL    HW1 8851   7.805   2.249   8.076  0.7292 -1.2044  0.3678
 2891SOL    HW2 8852   7.963   2.263   8.113  0.7314  1.2098 -0.3609
 2892SOL     OW 8853   1.961   1.358   1.319  0.2745  0.7738 -0.0599
 2892SOL    HW1 8854   1.874   1.310   1.306  0.9364  0.1843 -3.1585
 2892SOL    HW2 8855   2.028   1.324   1.253  1.9781  3.2951  0.2173
 2893SOL     OW 8856   5.405   6.456   3.022  0.4508  0.3965 -0.8526
 2893SOL    HW1 8857   5.395   6.463   2.922  1.5744 -1.2195 -1.1237
 2893SOL    HW2 8858   5.388   6.361   3.050  1.1226  0.6146  0.3477
 2894SOL     OW 8859   4.967   8.788   0.420 -0.5022 -0.1378 -0.1414
 2894SOL    HW1 8860   4.930   8.797   0.328  0.5876 -0.9474 -0.6912
 2894SOL    HW2 8861   5.061   8.754   0.415  0.3734  1.9197  1.1832
 2895SOL     OW 8862   1.920   7.412   0.303 -0.0523 -0.5621  0.2556
 2895SOL    HW1 8863   1.965   7.341   0.248  0.1693 -1.5233  1.6005
 2895SOL    HW2 8864   1.967   7.419   0.392  1.3711  2.8968 -0.6253
 2896SOL     OW 8865   5.811   0.089   5.291  0.1037  0.2728  0.6882
 2896SOL    HW1 8866   5.766   0.020   5.348 -0.9281 -0.4076 -0.8738
 2896SOL    HW2 8867   5.908   0.066   5.281  0.0162 -0.3076  1.1094
 2897SOL     OW 8868   2.592   6.204   1.607  0.4230 -0.0235  0.1992
 2897SOL    HW1 8869   2.546   6.196   1.695  1.3063 -0.1031  0.6692
 2897SOL    HW2 8870   2.598   6.114   1.565 -0.5092  0.1003 -0.2198
 2898SOL     OW 8871   4.205   7.823   7.878  0.1460 -0.3220 -0.3994
 2898SOL    HW1 8872   4.171   7.781   7.962  0.6528 -0.7904 -0.4224
 2898SOL    HW2 8873   4.269   7.760   7.833  2.1988  1.1071  0.3804
 2899SOL     OW 8874   2.936   4.387   2.439 -0.1201 -0.5013 -0.2286
 2899SOL    HW1 8875   2.944   4.412   2.535  1.0732  1.0091 -0.6763
 2899SOL    HW2 8876   2.941   4.470   2.382 -0.8841 -1.3496 -1.5994
 2900SOL     OW 8877   6.108   0.979   3.348  0.0766 -0.3197 -0.1750
 2900SOL    HW1 8878   6.097   1.067   3.301 -1.6852 -0.2487  0.2827
 2900SOL    HW2 8879   6.044   0.913   3.309  0.8135 -1.1605  0.0334
 2901SOL     OW 8880   7.318   2.975   1.827  0.6016  1.0664 -0.1901
 2901SOL    HW1 8881   7.292   2.879   1.820  0.8278  1.0959 -1.6890
 2901SOL    HW2 8882   7.309   3.019   1.738  1.4450  2.1963  0.2556
 2902SOL     OW 8883   7.550   7.044   0.941 -0.1641 -0.0672 -0.1842
 2902SOL    HW1 8884   7.648   7.066   0.950 -0.0281 -1.3209  2.7896
 2902SOL    HW2 8885   7.496   7.127   0.955  0.4901  0.2240  0.7851
 2903SOL     OW 8886   6.341   2.169   7.237 -0.2816 -0.3500  0.5666
 2903SOL    HW1 8887   6.430   2.165   7.283 -0.3875  0.0320  0.8078
 2903SOL    HW2 8888   6.279   2.228   7.289  0.3351  2.1548 -1.3428
 2904SOL     OW 8889   3.571   2.626   4.269  0.0190 -0.6262 -0.0486
 2904SOL    HW1 8890   3.662   2.586   4.268  0.3365 -0.0296 -2.8281
 2904SOL    HW2 8891   3.578   2.724   4.286  0.1411 -0.2558 -1.9782
 2905SOL     OW 8892   7.727   5.837   4.416 -0.6636  0.1249  0.5205
 2905SOL    HW1 8893   7.748   5.934   4.434 -0.0032 -0.1832  1.5581
 2905SOL    HW2 8894   7.635   5.816   4.450 -0.9658  0.4770 -0.0700
 2906SOL     OW 8895   5.912   4.542   0.088  0.1993 -0.4184 -0.3208
 2906SOL    HW1 8896   5.967   4.603   0.145 -1.1405 -0.9409  1.6077
 2906SOL    HW2 8897   5.941   4.552  -0.008  1.2833  1.8251  0.1650
 2907SOL     OW 8898   6.484   4.707   1.793  0.2444 -0.6352  0.2555
 2907SOL    HW1 8899   6.430   4.664   1.865  0.3372 -0.1598  0.6139
 2907SOL    HW2 8900   6.424   4.752   1.728  0.0560 -2.5846 -0.9770
 2908SOL     OW 8901   4.255   2.330   8.261  0.4254  0.2220  0.7420
 2908SOL    HW1 8902   4.351   2.325   8.289  0.3066  0.4446  1.1948
 2908SOL    HW2 8903   4.197   2.339   8.342  0.1451  1.7557  0.4037
 2909SOL     OW 8904   5.834   8.598   0.777  0.1706  0.5812 -0.0222
 2909SOL    HW1 8905   5.882   8.530   0.832  1.2948  0.9313 -0.5264
 2909SOL    HW2 8906   5.736   8.580   0.778  0.2052  0.3536  1.7597
 2910SOL     OW 8907   2.905   3.420   1.233 -0.7273  0.2044 -0.5180
 2910SOL    HW1 8908   2.837   3.388   1.299  1.2149  0.8337  1.9739
 2910SOL    HW2 8909   2.913   3.354   1.158 -2.6268 -0.8582  0.1381
 2911SOL     OW 8910   7.623   2.906   7.059 -0.0585  0.3162  0.6539
 2911SOL    HW1 8911   7.632   2.919   7.158  0.0114 -2.4779  1.0979
 2911SOL    HW2 8912   7.526   2.910   7.034 -0.1341  0.3828  0.9479
 2912SOL     OW 8913   0.977   1.254   1.472 -0.4506  0.0976  0.0767
 2912SOL    HW1 8914   0.908   1.300   1.528 -0.4445 -0.8282  0.8593
 2912SOL    HW2 8915   0.974   1.290   1.379 -1.8788  0.1627  0.1394
 2913SOL     OW 8916   3.815   5.014   5.175 -0.3251 -0.2160  0.2790
 2913SOL    HW1 8917   3.782   4.942   5.236 -0.5693  0.6434  1.2058
 2913SOL    HW2 8918   3.744   5.037   5.108 -0.5208 -0.3471  0.4405
 2914SOL     OW 8919   7.250   6.448   4.413  0.9732  0.1702  0.0924
 2914SOL    HW1 8920   7.253   6.525   4.476  2.6016  0.5116 -0.3541
 2914SOL    HW2 8921   7.342   6.414   4.397  0.6295  0.0747 -2.0550
 2915SOL     OW 8922   4.305   7.088   0.605 -0.3123  0.2720 -0.6412
 2915SOL    HW1 8923   4.302   7.162   0.672  1.5232 -0.4643  0.3193
 2915SOL    HW2 8924   4.371   7.112   0.533  0.0815 -0.2964 -0.4738
 2916SOL     OW 8925   3.858   5.867   6.292 -0.0556 -0.0782 -0.1941
 2916SOL    HW1 8926   3.912   5.917   6.360  0.9974  1.8486 -2.2896
 2916SOL    HW2 8927   3.914   5.853   6.210 -2.4789  1.4571 -2.2373
 2917SOL     OW 8928   2.358   1.538   6.674 -0.5623 -0.1233 -0.4513
 2917SOL    HW1 8929   2.271   1.501   6.643 -0.9408  0.5007 -0.1617
 2917SOL    HW2 8930   2.423   1.464   6.688 -0.3316 -0.4359 -2.8086
 2918SOL     OW 8931   0.503   7.560   8.276 -0.4934 -0.0067 -0.2300
 2918SOL    HW1 8932   0.496   7.464   8.247 -0.0717 -0.2404  0.4183
 2918SOL    HW2 8933   0.591   7.574   8.322 -0.7956  0.5535  0.1824
 2919SOL     OW 8934   5.854   5.703   8.379 -0.4573 -0.3213 -0.1480
 2919SOL    HW1 8935   5.793   5.632   8.343  0.3126 -1.3145  0.4389
 2919SOL    HW2 8936   5.947   5.666   8.385 -0.0891  0.6733  0.4051
 2920SOL     OW 8937   8.078   3.997   1.673 -0.3288  0.4987 -0.0911
 2920SOL    HW1 8938   8.009   3.935   1.636 -2.1815  0.1990  3.4261
 2920SOL    HW2 8939   8.032   4.071   1.724  1.9284  1.3248  0.8665
 2921SOL     OW 8940   1.765   0.173   5.596 -0.5249  0.3235  0.0399
 2921SOL    HW1 8941   1.832   0.099   5.588  0.6147  1.1956  1.1243
 2921SOL    HW2 8942   1.750   0.215   5.507  0.4750  0.2033 -0.1905
 2922SOL     OW 8943   4.119   5.050   2.211 -0.7652 -0.2881  0.2785
 2922SOL    HW1 8944   4.142   5.093   2.124  0.5387 -0.1694  0.6564
 2922SOL    HW2 8945   4.122   5.119   2.283  0.3906 -0.7939  0.7438
 2923SOL     OW 8946   4.492   7.012   3.966 -0.1786 -0.2690  0.7899
 2923SOL    HW1 8947   4.552   7.056   3.899 -1.5207 -1.0564 -1.0142
 2923SOL    HW2 8948   4.505   6.913   3.961 -0.0555 -0.3210  1.9704
 2924SOL     OW 8949   2.266   0.588   3.728  0.0973 -0.0272  0.1708
 2924SOL    HW1 8950   2.204   0.605   3.651 -0.2760  1.4668  0.7716
 2924SOL    HW2 8951   2.317   0.504   3.711  0.3630  0.4971 -1.9352
 2925SOL     OW 8952   2.304   2.753   4.379 -0.2466  0.0310  0.4232
 2925SOL    HW1 8953   2.235   2.728   4.310 -0.2503 -0.6459  0.6680
 2925SOL    HW2 8954   2.278   2.840   4.420  0.7371  1.4351 -1.7352
 2926SOL     OW 8955   3.018   3.916   6.939  0.0691 -0.5177 -0.2548
 2926SOL    HW1 8956   2.943   3.921   7.006  0.3721 -0.6877  0.0982
 2926SOL    HW2 8957   2.999   3.842   6.875 -1.1440  0.8030 -1.4993
 2927SOL     OW 8958   3.491   4.361   1.039 -0.7401  0.0896  0.3823
 2927SOL    HW1 8959   3.470   4.269   1.070 -0.2903 -0.6312 -1.3525
 2927SOL    HW2 8960   3.583   4.387   1.071 -0.4281 -0.4893 -0.0419
 2928SOL     OW 8961   6.557   0.161   7.898 -0.2420 -0.1599  0.0529
 2928SOL    HW1 8962   6.539   0.258   7.914 -0.2896  0.2731 -2.3639
 2928SOL    HW2 8963   6.610   0.149   7.814  1.1347 -2.1584  1.0946
 2929SOL     OW 8964   7.852   5.655   8.187 -0.4277 -0.4693  0.1128
 2929SOL    HW1 8965   7.883   5.723   8.253  1.0072 -0.0287 -0.9767
 2929SOL    HW2 8966   7.919   5.581   8.180  0.7980  0.7546 -2.6550
 2930SOL     OW 8967   2.213   6.031   4.357 -0.4396  0.2694  0.0450
 2930SOL    HW1 8968   2.143   6.085   4.311  0.0789  0.8400 -0.0815
 2930SOL    HW2 8969   2.265   6.089   4.419  2.4466  0.8142 -2.6288
 2931SOL     OW 8970   8.845   5.390   7.273  0.0457  0.2144  0.2908
 2931SOL    HW1 8971   8.838   5.290   7.266 -0.5275  0.3083 -0.6500
 2931SOL    HW2 8972   8.826   5.431   7.183  1.4460  1.1119  0.3819
 2932SOL     OW 8973   1.194   6.882   1.794  0.3011 -0.3175 -0.2328
 2932SOL    HW1 8974   1.227   6.809   1.735  0.6368  0.1468 -0.6329
 2932SOL    HW2 8975   1.095   6.879   1.799  0.2591 -0.3016 -0.9133
 2933SOL     OW 8976   6.770   3.038   2.316  0.0037  0.2162 -0.0914
 2933SOL    HW1 8977   6.777   3.134   2.288  0.7749  0.6537  1.4673
 2933SOL    HW2 8978   6.831   2.982   2.261  0.9284  0.9284  0.1862
 2934SOL     OW 8979   8.045   5.937   6.405 -0.0472  0.4715  0.4380
 2934SOL    HW1 8980   8.105   5.916   6.482 -1.3754  0.4529  1.4982
 2934SOL    HW2 8981   8.067   5.876   6.329  0.8123  0.0007  1.0464
 2935SOL     OW 8982   8.792   6.651   3.363  0.6221  0.8305  0.0650
 2935SOL    HW1 8983   8.860   6.725   3.363  1.2424  0.3279 -2.0082
 2935SOL    HW2 8984   8.791   6.606   3.453  0.2256  3.3044  1.3808
 2936SOL     OW 8985   1.043   1.716   4.723  0.5002  0.4219  0.1824
 2936SOL    HW1 8986   1.019   1.813   4.730  0.5481  0.4798 -0.4429
 2936SOL    HW2 8987   0.961   1.660   4.738  0.6101  0.5285  1.2920
 2937SOL     OW 8988   5.123   4.755   5.463  0.4934  0.5362 -0.6846
 2937SOL    HW1 8989   5.143   4.659   5.443  0.6086  0.7912 -1.9255
 2937SOL    HW2 8990   5.168   4.813   5.394 -0.6014  1.3976 -0.7090
 2938SOL     OW 8991   1.425   5.356   4.812  0.0178 -0.5170 -0.0829
 2938SOL    HW1 8992   1.373   5.440   4.797  1.5852  0.2814 -1.4001
 2938SOL    HW2 8993   1.432   5.338   4.910  0.5333  1.4827  0.2833
 2939SOL     OW 8994   8.379   4.810   5.056 -0.3749 -0.3801  0.2844
 2939SOL    HW1 8995   8.404   4.851   5.144 -0.7231 -0.6590  0.5142
 2939SOL    HW2 8996   8.417   4.865   4.982  1.1824 -0.9277  0.6183
 2940SOL     OW 8997   5.996   0.706   6.785 -0.3960 -0.0587 -0.2082
 2940SOL    HW1 8998   6.014   0.738   6.878 -2.8903  0.5940  0.1316
 2940SOL    HW2 8999   6.007   0.607   6.780  1.0176  0.0534  0.4327
 2941SOL     OW 9000   2.443   4.140   0.216 -0.0659  0.0416 -0.6381
 2941SOL    HW1 9001   2.423   4.080   0.293  0.7745  0.5552 -0.0015
 2941SOL    HW2 9002   2.359   4.162   0.167 -0.5090 -0.8382 -0.2777
 2942SOL     OW 9003   6.858   6.239   2.736  0.0379  0.3966  0.0801
 2942SOL    HW1 9004   6.850   6.173   2.661 -0.5078 -0.1817  0.6368
 2942SOL    HW2 9005   6.782   6.304   2.731  0.4062  0.8041 -0.2891
 2943SOL     OW 9006   1.100   1.566   5.495 -0.6846 -0.1500 -0.2306
 2943SOL    HW1 9007   1.031   1.537   5.561 -0.6851  0.6760  0.1463
 2943SOL    HW2 9008   1.055   1.610   5.417 -0.5658  1.2906  0.4737
 2944SOL     OW 9009   7.016   7.815   2.158  0.3128  0.6603  0.1940
 2944SOL    HW1 9010   7.099   7.781   2.114 -0.8333  0.4738 -1.9295
 2944SOL    HW2 9011   7.040   7.887   2.223  2.1799  0.1875  0.0911
 2945SOL     OW 9012   6.242   1.141   2.383  0.0207 -0.2660 -0.4994
 2945SOL    HW1 9013   6.278   1.088   2.459  0.6639 -0.5149 -0.9677
 2945SOL    HW2 9014   6.142   1.132   2.381  0.1393 -1.7855 -0.7896
 2946SOL     OW 9015   2.439   1.604   6.022 -0.1770 -0.3064 -0.1378
 2946SOL    HW1 9016   2.398   1.513   6.029 -0.4059 -0.3136 -1.3797
 2946SOL    HW2 9017   2.534   1.600   6.055 -0.5173 -0.7380  0.8377
 2947SOL     OW 9018   8.100   4.081   6.306  0.4453 -0.2802 -0.1191
 2947SOL    HW1 9019   8.121   4.178   6.321  1.0427 -0.6295  1.3615
 2947SOL    HW2 9020   8.062   4.070   6.214  1.3913  1.1973 -0.7226
 2948SOL     OW 9021   3.825   1.410   5.723 -0.5134  0.1306 -0.1886
 2948SOL    HW1 9022   3.877   1.493   5.704 -0.1938  0.1635  0.7790
 2948SOL    HW2 9023   3.737   1.414   5.676 -0.8148  1.3744  0.4402
 2949SOL     OW 9024   0.837   0.487   1.588  0.4596 -0.2176 -0.5259
 2949SOL    HW1 9025   0.826   0.465   1.491  0.2079 -1.4021 -0.2423
 2949SOL    HW2 9026   0.770   0.557   1.614 -0.7457 -1.2513 -0.7775
 2950SOL     OW 9027   0.205   2.116   8.654 -0.1398 -0.4283  0.0282
 2950SOL    HW1 9028   0.140   2.182   8.692  0.9304  0.5256  0.2766
 2950SOL    HW2 9029   0.182   2.100   8.557 -0.1563  0.6690 -0.1657
 2951SOL     OW 9030   6.303   6.616   2.455  0.2611 -0.6018 -0.2279
 2951SOL    HW1 9031   6.323   6.648   2.548 -0.1431 -1.7133  0.2674
 2951SOL    HW2 9032   6.213   6.572   2.454  0.5585 -1.2046 -0.9851
 2952SOL     OW 9033   8.123   4.421   0.956 -0.5002  0.2967  0.4796
 2952SOL    HW1 9034   8.149   4.325   0.963 -1.8655 -0.0763  0.7546
 2952SOL    HW2 9035   8.195   4.472   0.909 -1.0177 -1.4117 -2.4345
 2953SOL     OW 9036   6.886   6.432   2.443  0.2262  0.1101  0.3810
 2953SOL    HW1 9037   6.949   6.363   2.478  0.2660  0.4334  0.9669
 2953SOL    HW2 9038   6.894   6.437   2.343  0.0075 -0.9290  0.3062
 2954SOL     OW 9039   2.208   5.761   6.919  0.2548  0.1054 -0.9060
 2954SOL    HW1 9040   2.293   5.807   6.893  1.0611 -0.7927  0.0794
 2954SOL    HW2 9041   2.152   5.824   6.973  0.3557  0.6391 -1.4043
 2955SOL     OW 9042   6.474   6.973   3.573  0.6641  0.3117 -1.0307
 2955SOL    HW1 9043   6.403   6.927   3.626  0.3667  1.4795 -0.3788
 2955SOL    HW2 9044   6.545   7.005   3.634  1.5074 -0.3655 -1.6228
 2956SOL     OW 9045   4.707   2.618   4.969 -0.0381 -0.3342 -0.0651
 2956SOL    HW1 9046   4.807   2.622   4.971 -0.0658  0.3142  0.5492
 2956SOL    HW2 9047   4.676   2.603   4.876  0.6335 -0.4538 -0.2719
 2957SOL     OW 9048   4.592   5.120   0.790 -0.9485 -0.0608  0.3391
 2957SOL    HW1 9049   4.549   5.077   0.710  0.2895 -0.8077  0.0535
 2957SOL    HW2 9050   4.540   5.095   0.872 -0.1692 -2.3434  0.2153
 2958SOL     OW 9051   2.337   8.363   7.481  0.3999  0.0916 -0.0907
 2958SOL    HW1 9052   2.409   8.421   7.442  1.5081 -0.6172  0.8246
 2958SOL    HW2 9053   2.311   8.292   7.415  1.8068 -0.7094  0.1724
 2959SOL     OW 9054   2.303   4.815   4.848  0.7528 -0.7938  0.5121
 2959SOL    HW1 9055   2.310   4.719   4.876 -0.6675 -0.4480  2.2969
 2959SOL    HW2 9056   2.295   4.820   4.749 -0.9598 -2.6949  0.4694
 2960SOL     OW 9057   5.734   8.409   4.444 -0.3864  0.0409  0.0501
 2960SOL    HW1 9058   5.740   8.314   4.412 -3.3520  0.1725 -1.2080
 2960SOL    HW2 9059   5.773   8.470   4.376 -0.9293 -0.1123 -0.4036
 2961SOL     OW 9060   1.051   1.771   0.188  0.6903 -0.7760  0.1963
 2961SOL    HW1 9061   0.968   1.800   0.235  0.7209  0.2323 -0.3378
 2961SOL    HW2 9062   1.102   1.707   0.245 -0.4844 -1.4590  0.4926
 2962SOL     OW 9063   2.332   3.439   3.338 -0.3343  0.5114  0.1262
 2962SOL    HW1 9064   2.381   3.465   3.421  0.5694  1.3362 -0.6358
 2962SOL    HW2 9065   2.392   3.384   3.280 -1.7376 -2.1214  1.0413
 2963SOL     OW 9066   8.158   2.348   7.884  0.0510  0.4379  0.3928
 2963SOL    HW1 9067   8.206   2.351   7.797  0.3079 -1.0161  0.4633
 2963SOL    HW2 9068   8.125   2.255   7.901  0.5641  0.5385  2.1489
 2964SOL     OW 9069   4.847   6.476   4.809 -0.0338 -0.4261 -0.4045
 2964SOL    HW1 9070   4.931   6.421   4.806  0.7654  0.7727 -2.7974
 2964SOL    HW2 9071   4.768   6.416   4.809  0.7804 -1.5780  1.2438
 2965SOL     OW 9072   8.823   4.591   2.308 -0.0367  0.1010  0.1605
 2965SOL    HW1 9073   8.869   4.525   2.248  0.4028  1.0090 -0.5293
 2965SOL    HW2 9074   8.858   4.581   2.401 -1.4969 -2.0490  0.5443
 2966SOL     OW 9075   3.644   3.676   7.246  0.3486 -0.0375  0.3978
 2966SOL    HW1 9076   3.577   3.604   7.225 -1.3181  1.6315 -0.2452
 2966SOL    HW2 9077   3.598   3.751   7.293  2.2982  0.1248  2.1450
 2967SOL     OW 9078   2.889   5.038   3.929 -0.1650  0.3674 -0.6755
 2967SOL    HW1 9079   2.871   4.976   4.005  0.2872 -0.2443 -1.0491
 2967SOL    HW2 9080   2.961   4.999   3.871  0.3903  1.4175 -0.7252
 2968SOL     OW 9081   1.023   5.098   2.726  0.2716 -0.3759  0.6623
 2968SOL    HW1 9082   1.066   5.127   2.640 -1.5403  0.3556 -0.0515
 2968SOL    HW2 9083   0.951   5.164   2.751  0.8190 -0.5264  2.8101
 2969SOL     OW 9084   0.436   2.272   8.444 -0.5285 -0.4135  0.1234
 2969SOL    HW1 9085   0.401   2.179   8.443  0.9186 -1.0309  2.2396
 2969SOL    HW2 9086   0.515   2.279   8.383  0.5086 -1.0800  1.3652
 2970SOL     OW 9087   0.040   5.279   4.595 -0.7250  0.2634 -0.0184
 2970SOL    HW1 9088   0.063   5.335   4.515 -2.5512 -0.9939 -1.5019
 2970SOL    HW2 9089  -0.022   5.206   4.568  0.0369 -1.3245  2.2345
 2971SOL     OW 9090   0.316   6.631   6.904 -0.3326 -0.1233 -0.5438
 2971SOL    HW1 9091   0.344   6.639   6.809 -3.3796  0.1735 -1.5280
 2971SOL    HW2 9092   0.291   6.722   6.939 -1.1087 -0.4914 -0.1192
 2972SOL     OW 9093   8.719   1.652   0.309  0.3330  0.6460  0.1194
 2972SOL    HW1 9094   8.667   1.591   0.250  2.5644 -0.6377 -0.6793
 2972SOL    HW2 9095   8.701   1.747   0.283  0.0898  0.1674 -1.6208
 2973SOL     OW 9096   5.994   3.635   1.729 -0.3824  0.2404 -0.1915
 2973SOL    HW1 9097   5.920   3.569   1.711 -0.3009 -0.0236  0.4277
 2973SOL    HW2 9098   5.956   3.727   1.734 -1.0860 -0.1340  2.6084
 2974SOL     OW 9099   6.821   4.764   2.797  0.0143  0.6990  0.4073
 2974SOL    HW1 9100   6.870   4.848   2.820  1.1918  0.6566 -1.7157
 2974SOL    HW2 9101   6.737   4.787   2.748  0.6584  0.6553 -0.7468
 2975SOL     OW 9102   1.968   5.716   7.771 -0.2390  0.9641 -0.4526
 2975SOL    HW1 9103   1.933   5.694   7.862  1.6862 -0.2861  0.0454
 2975SOL    HW2 9104   1.952   5.638   7.710  2.7035 -0.2282  0.1434
 2976SOL     OW 9105   6.173   2.722   2.688 -0.9717 -0.0153  0.2366
 2976SOL    HW1 9106   6.118   2.639   2.699 -2.0276  0.9281  2.9998
 2976SOL    HW2 9107   6.154   2.784   2.764  1.1573  1.9978 -0.7716
 2977SOL     OW 9108   7.884   0.326   2.131  0.2515 -0.0170 -0.1225
 2977SOL    HW1 9109   7.842   0.417   2.136 -0.1605 -0.2573  1.0557
 2977SOL    HW2 9110   7.812   0.257   2.131  0.6074 -0.4139  1.2956
 2978SOL     OW 9111   1.783   0.210   4.794  0.4462 -0.0211 -0.1216
 2978SOL    HW1 9112   1.750   0.219   4.888 -1.1812 -0.9574 -0.5661
 2978SOL    HW2 9113   1.739   0.131   4.751  0.9612  0.5507 -1.7621
 2979SOL     OW 9114   5.532   2.476   8.397  0.3409 -0.2539 -0.1563
 2979SOL    HW1 9115   5.472   2.539   8.447  0.5675  0.8756 -1.2723
 2979SOL    HW2 9116   5.591   2.428   8.462  0.3336  0.8675  0.7050
 2980SOL     OW 9117   1.232   8.070   5.834  0.1172  0.7312 -0.3860
 2980SOL    HW1 9118   1.280   8.150   5.799 -1.8029  1.3632 -1.7742
 2980SOL    HW2 9119   1.248   7.992   5.773  0.7808  0.4571  0.1318
 2981SOL     OW 9120   7.943   3.216   7.908  0.2006  0.2170  0.2202
 2981SOL    HW1 9121   7.897   3.137   7.951  2.4873 -0.4654  1.5759
 2981SOL    HW2 9122   7.909   3.300   7.949  1.3207 -0.3625  2.5016
 2982SOL     OW 9123   2.335   3.283   7.521  0.3103  0.7400  0.1330
 2982SOL    HW1 9124   2.289   3.371   7.508  0.3915  0.9062  0.9585
 2982SOL    HW2 9125   2.413   3.295   7.583 -0.4018 -0.1423  1.2240
 2983SOL     OW 9126   6.976   1.105   0.385 -0.1803  0.1014  0.5571
 2983SOL    HW1 9127   6.949   1.133   0.477  1.5889  1.1967  0.7961
 2983SOL    HW2 9128   7.005   1.186   0.333  1.5303 -0.8397 -0.0074
 2984SOL     OW 9129   6.606   1.136   7.780 -0.4640  0.6071 -0.1478
 2984SOL    HW1 9130   6.656   1.157   7.865  1.5332  0.6777 -1.2800
 2984SOL    HW2 9131   6.666   1.083   7.719 -2.6687 -1.5977 -0.5690
 2985SOL     OW 9132   2.500   2.013   0.438  0.0424 -0.0019  0.3689
 2985SOL    HW1 9133   2.438   2.078   0.396  0.3155 -0.3816 -0.6735
 2985SOL    HW2 9134   2.576   2.061   0.481 -0.2111  0.3976  0.3674
 2986SOL     OW 9135   1.945   5.790   1.839  0.4686 -0.9099  0.6799
 2986SOL    HW1 9136   2.003   5.818   1.763 -2.8255  0.3774 -1.6057
 2986SOL    HW2 9137   1.902   5.703   1.818 -0.3155 -0.6431  1.1329
 2987SOL     OW 9138   2.071   4.291   3.170  0.5518 -0.3500 -0.2139
 2987SOL    HW1 9139   2.081   4.192   3.158 -0.9327 -0.4838 -0.5386
 2987SOL    HW2 9140   2.096   4.316   3.263  1.4982 -0.9243 -0.2904
 2988SOL     OW 9141   3.324   4.957   1.551  0.3252 -0.3154  0.0002
 2988SOL    HW1 9142   3.419   4.928   1.544  0.0926 -0.7898 -1.8518
 2988SOL    HW2 9143   3.264   4.885   1.515 -0.7342  0.0194  1.0374
 2989SOL     OW 9144   5.862   6.164   0.614  0.0562  0.1656 -0.6296
 2989SOL    HW1 9145   5.886   6.218   0.533  0.0690 -1.1118 -1.5061
 2989SOL    HW2 9146   5.837   6.072   0.586  0.9513 -0.5847  0.9078
 2990SOL     OW 9147   2.698   5.708   5.290 -0.2610  0.1933 -0.1590
 2990SOL    HW1 9148   2.669   5.753   5.206 -1.9298  0.5421  0.5441
 2990SOL    HW2 9149   2.733   5.776   5.355  1.0724 -0.0806 -0.5613
 2991SOL     OW 9150   5.777   2.628   7.051 -0.2027 -0.6080 -0.1809
 2991SOL    HW1 9151   5.730   2.551   7.008  0.1732 -0.9391 -0.0018
 2991SOL    HW2 9152   5.721   2.665   7.125 -0.7879 -0.1295 -0.8454
 2992SOL     OW 9153   7.137   8.721   4.645 -0.0920 -0.1471  0.2704
 2992SOL    HW1 9154   7.230   8.695   4.671  0.4156  0.5020 -0.8381
 2992SOL    HW2 9155   7.120   8.693   4.551 -1.6475 -1.8180  1.0009
 2993SOL     OW 9156   2.806   6.287   2.907 -0.1798  0.0330 -0.7622
 2993SOL    HW1 9157   2.809   6.331   2.997 -1.8643 -0.1857 -0.5660
 2993SOL    HW2 9158   2.717   6.242   2.895 -0.6004  1.3337 -3.1272
 2994SOL     OW 9159   5.900   1.276   0.780 -0.2042 -0.0045  0.0300
 2994SOL    HW1 9160   5.899   1.367   0.740  0.9003 -0.2942 -0.6972
 2994SOL    HW2 9161   5.866   1.209   0.714 -2.0415 -0.0209  0.9177
 2995SOL     OW 9162   3.320   0.578   4.309 -0.2495 -0.2020  0.5750
 2995SOL    HW1 9163   3.258   0.593   4.233 -0.7781 -2.1775  0.5553
 2995SOL    HW2 9164   3.413   0.564   4.275  0.0846  1.8260  0.5416
 2996SOL     OW 9165   4.410   1.885   5.154 -0.3136 -0.4757 -0.5802
 2996SOL    HW1 9166   4.421   1.786   5.155 -1.7281 -0.6627 -1.1230
 2996SOL    HW2 9167   4.454   1.922   5.072  2.7840 -0.2534  1.0302
 2997SOL     OW 9168   5.254   4.154   3.315 -0.3263 -0.0279 -0.3024
 2997SOL    HW1 9169   5.311   4.075   3.291  0.3788  0.3340  0.1702
 2997SOL    HW2 9170   5.283   4.191   3.403 -0.8716  0.5570 -0.3635
 2998SOL     OW 9171   4.944   7.571   7.426 -0.3939 -0.3340  0.6707
 2998SOL    HW1 9172   4.871   7.636   7.410 -0.7195 -1.0782 -1.1012
 2998SOL    HW2 9173   4.943   7.542   7.522 -2.1707 -0.0455  0.7621
 2999SOL     OW 9174   4.721   3.346   1.708  0.1734  0.2182  0.0559
 2999SOL    HW1 9175   4.762   3.436   1.722 -0.4433  0.4003  0.7507
 2999SOL    HW2 9176   4.777   3.277   1.753 -0.4534  0.5065  1.3079
 3000SOL     OW 9177   6.100   8.291   0.595  0.3468  0.1839 -0.3572
 3000SOL    HW1 9178   6.119   8.389   0.600  2.1961 -0.0781 -1.2637
 3000SOL    HW2 9179   6.021   8.269   0.652  0.7230  1.9812  0.9471
 3001SOL     OW 9180   6.505   3.941   1.967 -0.5623  0.4053  0.1352
 3001SOL    HW1 9181   6.504   3.969   2.063 -0.9133  0.6173  0.0714
 3001SOL    HW2 9182   6.534   3.846   1.960 -1.4225  0.1126  0.5240
 3002SOL     OW 9183   8.588   8.644   3.311  0.0165 -0.1400  0.1854
 3002SOL    HW1 9184   8.650   8.666   3.387  0.1098 -0.2065  0.1281
 3002SOL    HW2 9185   8.611   8.554   3.275  1.7268  0.9366 -1.6458
 3003SOL     OW 9186   4.983   3.867   5.939 -0.0507 -0.5281 -0.1386
 3003SOL    HW1 9187   4.909   3.809   5.904  0.2106 -1.6082  1.0144
 3003SOL    HW2 9188   4.978   3.957   5.896 -2.5764 -0.2676  0.5184
 3004SOL     OW 9189   8.728   0.848   1.629  0.1692  0.8045 -0.0541
 3004SOL    HW1 9190   8.681   0.936   1.627 -1.0380  0.2898  2.0154
 3004SOL    HW2 9191   8.700   0.798   1.711  3.6368  0.0189  0.8104
 3005SOL     OW 9192   2.377   2.629   8.268 -0.0203  0.1970  0.0842
 3005SOL    HW1 9193   2.344   2.626   8.174  2.0062 -0.4060 -0.6614
 3005SOL    HW2 9194   2.392   2.724   8.295  0.2825  0.3325 -0.5420
 3006SOL     OW 9195   8.788   5.162   6.383  0.2847  0.2706 -0.2464
 3006SOL    HW1 9196   8.789   5.233   6.453 -0.3698  1.4880 -1.4223
 3006SOL    HW2 9197   8.831   5.079   6.419  0.1263  0.9037  1.5188
 3007SOL     OW 9198   0.900   6.859   8.133  0.6605  0.4519 -0.1209
 3007SOL    HW1 9199   0.855   6.936   8.087 -0.4761  0.3962  0.8743
 3007SOL    HW2 9200   0.832   6.800   8.175  1.6069 -0.2740  0.4386
 3008SOL     OW 9201   6.676   5.654   4.628  0.1578  0.0632 -0.3432
 3008SOL    HW1 9202   6.737   5.634   4.705 -0.2265 -0.3600 -0.1479
 3008SOL    HW2 9203   6.692   5.587   4.555  1.2624  1.0779 -1.0713
 3009SOL     OW 9204   8.171   5.623   5.970  0.3538  0.6466 -0.1927
 3009SOL    HW1 9205   8.257   5.620   6.021  0.7819  0.4979 -0.9018
 3009SOL    HW2 9206   8.095   5.597   6.030  1.1155 -1.9354 -0.2128
 3010SOL     OW 9207   7.825   2.232   1.272  0.5862 -0.0108 -0.3515
 3010SOL    HW1 9208   7.742   2.238   1.327 -1.3299  0.3970 -3.0769
 3010SOL    HW2 9209   7.885   2.162   1.310 -1.6686 -1.3946  0.8998
 3011SOL     OW 9210   3.720   5.036   4.231 -0.0903  0.0661 -0.2993
 3011SOL    HW1 9211   3.695   5.022   4.327  1.3306 -1.0595 -0.0585
 3011SOL    HW2 9212   3.819   5.039   4.222 -0.1926 -0.0756 -1.7619
 3012SOL     OW 9213   3.190   2.791   7.871  0.4301 -0.3222  0.0627
 3012SOL    HW1 9214   3.101   2.745   7.873 -0.0522  0.3879 -2.0243
 3012SOL    HW2 9215   3.257   2.735   7.918 -0.5711 -2.1811 -0.6182
 3013SOL     OW 9216   1.737   1.128   8.586  0.1790 -0.0719  0.3089
 3013SOL    HW1 9217   1.796   1.087   8.517  1.0707  1.1997  0.2826
 3013SOL    HW2 9218   1.793   1.170   8.657 -0.6826  0.8697  0.4594
 3014SOL     OW 9219   8.611   2.738   2.928  0.0242  0.1101 -0.0882
 3014SOL    HW1 9220   8.626   2.763   3.024 -1.4553  0.1078  0.1609
 3014SOL    HW2 9221   8.524   2.690   2.919 -0.3746  1.0358 -1.5787
 3015SOL     OW 9222   1.147   1.219   7.086  0.0835 -0.4277  0.1579
 3015SOL    HW1 9223   1.158   1.269   7.172 -0.8385 -2.2411  1.4007
 3015SOL    HW2 9224   1.063   1.249   7.041 -0.0208 -0.2515  0.4628
 3016SOL     OW 9225   6.312   1.341   5.348 -0.0198  0.0407 -0.2497
 3016SOL    HW1 9226   6.216   1.370   5.349  0.3772  1.4347 -0.3566
 3016SOL    HW2 9227   6.318   1.246   5.316 -1.2511  0.3872 -1.6276
 3017SOL     OW 9228   0.847   8.301   3.821 -0.1830 -0.2491  0.0419
 3017SOL    HW1 9229   0.848   8.290   3.920 -0.1905 -1.5189 -0.0881
 3017SOL    HW2 9230   0.753   8.313   3.789 -0.1604  0.3949  0.2042
 3018SOL     OW 9231   6.664   4.120   4.410 -0.0805  0.3498 -0.1360
 3018SOL    HW1 9232   6.651   4.029   4.450  0.0645  0.6470  0.6023
 3018SOL    HW2 9233   6.591   4.180   4.441  1.3593  1.2518  1.7208
 3019SOL     OW 9234   3.547   3.367   2.948 -0.3450  0.3207 -0.7140
 3019SOL    HW1 9235   3.588   3.450   2.909  0.7896  0.9783  1.7054
 3019SOL    HW2 9236   3.454   3.387   2.977  0.0789  0.9200  0.2866
 3020SOL     OW 9237   4.016   5.114   3.845 -0.2037 -0.3638 -0.2010
 3020SOL    HW1 9238   3.991   5.066   3.761  1.0238 -1.0560 -0.1858
 3020SOL    HW2 9239   4.096   5.171   3.828 -0.9218  0.7635  0.0962
 3021SOL     OW 9240   4.679   7.667   8.005 -0.2022 -0.7069  0.5298
 3021SOL    HW1 9241   4.767   7.679   8.050 -0.2225 -0.3694  0.4761
 3021SOL    HW2 9242   4.623   7.749   8.015  0.2258 -0.1883 -1.0656
 3022SOL     OW 9243   0.144   0.411   1.992 -0.0798 -0.2960 -0.2477
 3022SOL    HW1 9244   0.119   0.507   2.003  0.0188 -0.2908 -0.0749
 3022SOL    HW2 9245   0.206   0.384   2.065  2.4004  0.3697 -1.9442
 3023SOL     OW 9246   7.009   8.346   5.968  0.2771 -0.2048  0.3956
 3023SOL    HW1 9247   6.939   8.370   6.036  1.4207  1.1052  1.1724
 3023SOL    HW2 9248   6.991   8.394   5.883  0.3111  0.2660  0.6497
 3024SOL     OW 9249   3.874   3.318   0.044 -0.6641 -0.6068 -0.8093
 3024SOL    HW1 9250   3.840   3.228   0.018 -0.5223 -0.5120 -1.3376
 3024SOL    HW2 9251   3.936   3.352  -0.027  0.3123 -0.6547 -0.0008
 3025SOL     OW 9252   2.613   3.512   2.576 -0.5486 -0.6131 -0.3453
 3025SOL    HW1 9253   2.688   3.570   2.608 -1.7735  0.8266 -0.0022
 3025SOL    HW2 9254   2.580   3.456   2.652 -0.4015 -0.6014 -0.2715
 3026SOL     OW 9255   3.911   7.477   8.822 -0.3278  0.0274  0.0608
 3026SOL    HW1 9256   3.828   7.471   8.767 -0.0141  2.1200 -0.7366
 3026SOL    HW2 9257   3.967   7.396   8.807 -2.3020 -1.5646  0.8257
 3027SOL     OW 9258   6.751   7.530   1.007 -0.0282  0.3770  0.3748
 3027SOL    HW1 9259   6.789   7.616   1.042  0.4228 -0.4327  1.9934
 3027SOL    HW2 9260   6.791   7.454   1.058 -2.3209 -0.6474  0.7691
 3028SOL     OW 9261   6.612   7.668   7.279  0.2193  0.0974  0.1645
 3028SOL    HW1 9262   6.643   7.763   7.285  2.1952 -0.4806 -0.0971
 3028SOL    HW2 9263   6.613   7.639   7.183 -1.1956  0.0397  0.1501
 3029SOL     OW 9264   6.436   3.967   0.982 -0.2397  0.3942 -0.4172
 3029SOL    HW1 9265   6.448   4.057   0.941  1.1558  0.2399 -0.4192
 3029SOL    HW2 9266   6.438   3.977   1.082  0.8196  0.2965 -0.4100
 3030SOL     OW 9267   6.403   8.027   6.266  0.0779 -0.0839  0.2753
 3030SOL    HW1 9268   6.389   8.063   6.174  1.4721  1.9494  0.7968
 3030SOL    HW2 9269   6.318   7.984   6.298 -0.4187 -0.8779 -1.9297
 3031SOL     OW 9270   3.532   8.693   3.717 -0.0145  0.4339 -0.5373
 3031SOL    HW1 9271   3.553   8.596   3.707 -0.4149  0.3233 -0.3133
 3031SOL    HW2 9272   3.460   8.705   3.785  0.7223  0.9557  0.1797
 3032SOL     OW 9273   7.630   2.934   1.558 -0.4407 -0.7566 -0.1628
 3032SOL    HW1 9274   7.651   2.956   1.463  0.8609 -0.5759  0.1492
 3032SOL    HW2 9275   7.672   3.002   1.618 -1.0074 -1.0290  0.5588
 3033SOL     OW 9276   3.900   7.025   6.383 -0.1019  0.3418  0.6014
 3033SOL    HW1 9277   3.818   6.981   6.422 -0.4042 -0.0845 -0.4673
 3033SOL    HW2 9278   3.885   7.041   6.285  0.9191  0.7037  0.4974
 3034SOL     OW 9279   1.440   5.795   3.815 -0.3139 -0.1530 -0.0711
 3034SOL    HW1 9280   1.520   5.772   3.759 -0.3502  2.9483 -1.5845
 3034SOL    HW2 9281   1.460   5.774   3.910  1.3463 -1.7126 -0.6859
 3035SOL     OW 9282   6.621   4.970   5.912  0.1587 -0.6693 -0.1502
 3035SOL    HW1 9283   6.584   5.006   5.826 -0.1488 -2.8805 -0.9982
 3035SOL    HW2 9284   6.720   4.959   5.903 -0.0699 -2.4456 -0.8707
 3036SOL     OW 9285   6.525   1.437   2.719 -0.1672  0.4733  0.5068
 3036SOL    HW1 9286   6.426   1.432   2.714 -0.0335 -1.4980 -1.1491
 3036SOL    HW2 9287   6.552   1.481   2.805 -2.4320  0.1167  1.4553
 3037SOL     OW 9288   0.305   0.850   4.805 -0.2795 -0.7786 -0.0303
 3037SOL    HW1 9289   0.214   0.871   4.769 -0.7586 -0.5275  1.2842
 3037SOL    HW2 9290   0.374   0.879   4.739 -1.0523  1.3724  0.0235
 3038SOL     OW 9291   3.957   2.153   7.807  0.3203  0.3861 -0.1820
 3038SOL    HW1 9292   3.959   2.053   7.798 -0.5210  0.4962 -1.8416
 3038SOL    HW2 9293   4.024   2.194   7.745 -0.3509  0.9001 -0.5821
 3039SOL     OW 9294   3.582   1.401   4.526 -0.0107  0.1827  0.2319
 3039SOL    HW1 9295   3.621   1.489   4.499 -3.6533  2.1124  0.6303
 3039SOL    HW2 9296   3.550   1.353   4.444  0.2751  0.1008  0.1663
 3040SOL     OW 9297   3.902   1.882   5.369 -0.1441 -0.6479  0.0831
 3040SOL    HW1 9298   3.831   1.952   5.359 -0.7326 -1.4303 -1.7051
 3040SOL    HW2 9299   3.972   1.895   5.300  0.0969 -1.4078  0.1720
 3041SOL     OW 9300   7.581   0.897   4.362  0.2407  0.2186  0.0466
 3041SOL    HW1 9301   7.663   0.869   4.313 -1.6819 -0.7889 -2.8896
 3041SOL    HW2 9302   7.580   0.856   4.453  1.5036 -2.4322 -1.0369
 3042SOL     OW 9303   4.184   8.805   4.387 -0.4208 -0.0640 -0.0876
 3042SOL    HW1 9304   4.201   8.711   4.418  1.0796  0.1591 -0.1594
 3042SOL    HW2 9305   4.269   8.845   4.353 -1.1942  1.0870 -0.7331
 3043SOL     OW 9306   7.295   5.355   0.165  0.1281  0.1257  0.6256
 3043SOL    HW1 9307   7.318   5.266   0.125 -0.0378  0.6435 -0.6885
 3043SOL    HW2 9308   7.378   5.409   0.177  0.0958  0.3259  0.0323
 3044SOL     OW 9309   0.950   4.771   5.394  0.0558  0.2098  0.1893
 3044SOL    HW1 9310   0.922   4.739   5.485  1.8941 -1.8110  0.1440
 3044SOL    HW2 9311   0.946   4.870   5.391 -0.2074  0.3305  2.4360
 3045SOL     OW 9312   7.048   8.835   6.115  0.6883 -0.3640 -0.0648
 3045SOL    HW1 9313   7.051   8.935   6.114  0.8598 -0.3357 -2.4173
 3045SOL    HW2 9314   7.125   8.800   6.169  1.3359  0.7598 -0.2323
 3046SOL     OW 9315   7.787   1.630   3.586  0.5463  0.2462 -0.7296
 3046SOL    HW1 9316   7.689   1.613   3.570  1.0201 -1.6989 -1.9181
 3046SOL    HW2 9317   7.816   1.710   3.533  0.1698 -0.8868 -2.7684
 3047SOL     OW 9318   8.157   1.055   5.091 -0.0944 -0.3956 -0.3365
 3047SOL    HW1 9319   8.069   1.022   5.056 -0.7094  1.0599 -0.2130
 3047SOL    HW2 9320   8.223   0.980   5.090 -1.2187 -1.4121 -0.8090
 3048SOL     OW 9321   8.083   6.529   7.179 -0.2959 -0.1388  0.4579
 3048SOL    HW1 9322   8.015   6.460   7.156 -0.2612 -0.0818  0.1770
 3048SOL    HW2 9323   8.119   6.511   7.271  1.9413 -2.3496 -0.7178
 3049SOL     OW 9324   4.769   0.284   7.556 -1.0269  0.3929 -0.9840
 3049SOL    HW1 9325   4.715   0.237   7.486 -1.3491 -0.4635 -0.1624
 3049SOL    HW2 9326   4.866   0.268   7.539 -1.1088  0.0567 -1.1419
 3050SOL     OW 9327   2.917   4.838   4.148  0.2465 -0.0961 -0.7292
 3050SOL    HW1 9328   2.965   4.798   4.226  1.2077  0.7601 -0.8532
 3050SOL    HW2 9329   2.945   4.792   4.064 -0.6805 -0.9230 -0.5947
 3051SOL     OW 9330   1.720   0.582   3.208 -0.0873  0.2642 -0.1538
 3051SOL    HW1 9331   1.742   0.490   3.238 -0.4292  0.4373  0.6621
 3051SOL    HW2 9332   1.803   0.628   3.176  0.1910 -0.1095  0.0263
 3052SOL     OW 9333   8.676   1.736   5.203 -0.4963 -0.3084  0.3333
 3052SOL    HW1 9334   8.675   1.765   5.107  1.0821  0.6680  0.5719
 3052SOL    HW2 9335   8.712   1.643   5.209 -1.1683 -0.6030 -0.0528
 3053SOL     OW 9336   1.909   5.193   3.228 -0.1068 -0.0337  0.3420
 3053SOL    HW1 9337   1.811   5.194   3.209 -0.3395 -0.4680  1.4459
 3053SOL    HW2 9338   1.960   5.196   3.142 -1.0804  0.3696 -0.2384
 3054SOL     OW 9339   6.450   2.497   4.319  0.1040 -0.3367 -0.2099
 3054SOL    HW1 9340   6.497   2.585   4.327  0.6924 -0.3361 -2.7878
 3054SOL    HW2 9341   6.351   2.511   4.331  0.3440  0.2795  1.4116
 3055SOL     OW 9342   1.026   3.041   0.662 -0.2805 -0.2030 -0.5556
 3055SOL    HW1 9343   1.110   3.062   0.610 -0.8745  2.7679 -0.4980
 3055SOL    HW2 9344   0.948   3.039   0.599 -0.6416  0.7827 -0.1584
 3056SOL     OW 9345   1.478   5.916   2.277 -0.5756 -0.2982  0.0705
 3056SOL    HW1 9346   1.481   5.832   2.331 -0.8476 -0.5075 -0.2354
 3056SOL    HW2 9347   1.555   5.974   2.302  1.2290 -1.8083 -1.6150
 3057SOL     OW 9348   8.505   5.267   0.407  0.8694 -0.2436  0.5645
 3057SOL    HW1 9349   8.553   5.346   0.369  1.4765 -0.9761 -0.2353
 3057SOL    HW2 9350   8.443   5.297   0.480 -0.3189  1.1982 -0.9761
 3058SOL     OW 9351   0.012   4.112   0.148  0.1981  0.3351  0.0886
 3058SOL    HW1 9352   0.047   4.204   0.131 -0.2873  0.8306  1.6331
 3058SOL    HW2 9353   0.034   4.084   0.241  0.1794 -1.0556 -0.2941
 3059SOL     OW 9354   2.841   8.691   7.740 -0.0284  0.0832  0.0703
 3059SOL    HW1 9355   2.918   8.635   7.768  0.7050  1.7911  1.7187
 3059SOL    HW2 9356   2.756   8.639   7.750  0.7580 -1.2922 -0.2277
 3060SOL     OW 9357   8.228   0.606   6.361  0.3232 -0.7926  0.3131
 3060SOL    HW1 9358   8.186   0.644   6.442 -0.0293 -1.2090  0.3305
 3060SOL    HW2 9359   8.157   0.585   6.293  0.7226  0.7183 -0.6061
 3061SOL     OW 9360   7.796   0.715   6.246  0.3308  0.5240  0.5454
 3061SOL    HW1 9361   7.793   0.793   6.307 -0.9609  0.5233  0.5153
 3061SOL    HW2 9362   7.704   0.676   6.237  0.7862 -0.4379 -0.1499
 3062SOL     OW 9363   3.272   3.788   7.595 -0.2625 -0.1046  0.0558
 3062SOL    HW1 9364   3.324   3.806   7.511 -0.4933  1.2194  0.1717
 3062SOL    HW2 9365   3.177   3.816   7.581  0.0525  1.7170  1.2644
 3063SOL     OW 9366   0.643   8.791   0.912 -0.1556  0.1309 -0.0204
 3063SOL    HW1 9367   0.613   8.879   0.947 -1.2269 -0.2915  0.1777
 3063SOL    HW2 9368   0.609   8.779   0.818 -0.0336 -0.0701 -0.0401
 3064SOL     OW 9369   2.833   6.918   0.608  0.1586  0.1072  0.7190
 3064SOL    HW1 9370   2.769   6.995   0.611 -1.6520 -1.0161 -2.9727
 3064SOL    HW2 9371   2.799   6.849   0.544  2.6792 -2.9351  2.3744
 3065SOL     OW 9372   1.951   3.017   8.245  0.1489  0.4042  0.0670
 3065SOL    HW1 9373   2.028   3.014   8.181 -0.5590  2.4050 -0.9735
 3065SOL    HW2 9374   1.971   3.083   8.317  0.8341 -1.6606  1.8731
 3066SOL     OW 9375   5.792   1.746   1.246  0.3710  0.0399 -0.3653
 3066SOL    HW1 9376   5.812   1.667   1.304 -2.6805 -0.5128  0.1510
 3066SOL    HW2 9377   5.858   1.751   1.171  1.3264 -2.3217  0.2329
 3067SOL     OW 9378   4.552   3.113   3.388 -0.1616  0.0437  0.1016
 3067SOL    HW1 9379   4.505   3.025   3.394 -0.6093  0.3686  1.9902
 3067SOL    HW2 9380   4.621   3.118   3.460  0.7336  0.7525 -0.7854
 3068SOL     OW 9381   0.677   7.046   8.618  0.2204 -0.0663  0.2443
 3068SOL    HW1 9382   0.634   7.125   8.661  0.2084  1.9026 -3.0613
 3068SOL    HW2 9383   0.754   7.076   8.562  1.1469 -2.6363 -0.0104
 3069SOL     OW 9384   6.825   1.855   3.770 -0.1104 -0.2320  0.0793
 3069SOL    HW1 9385   6.895   1.788   3.743  0.1556  0.2103 -0.3481
 3069SOL    HW2 9386   6.856   1.904   3.851 -0.3077 -0.6268  0.3959
 3070SOL     OW 9387   4.646   6.329   5.977 -0.5096  0.1916  0.2345
 3070SOL    HW1 9388   4.650   6.422   5.941 -1.7038  0.2479  0.2155
 3070SOL    HW2 9389   4.553   6.294   5.971 -0.0588 -1.0714  0.0983
 3071SOL     OW 9390   2.171   0.055   6.361 -0.0795  0.4174  0.4018
 3071SOL    HW1 9391   2.231   0.022   6.288  0.6291 -1.6842  1.8351
 3071SOL    HW2 9392   2.185   0.153   6.374  0.3865  0.6791 -1.6714
 3072SOL     OW 9393   2.300   0.113   1.422 -0.6593  0.0423  0.4796
 3072SOL    HW1 9394   2.312   0.162   1.509  2.4508 -0.4420  0.4435
 3072SOL    HW2 9395   2.320   0.175   1.346 -1.7874  0.0227  0.1423
 3073SOL     OW 9396   5.322   8.223   6.075  0.7188 -0.4306  0.7307
 3073SOL    HW1 9397   5.301   8.317   6.100 -1.2270 -0.1795 -1.4686
 3073SOL    HW2 9398   5.420   8.215   6.053  0.5153  1.7665 -1.4723
 3074SOL     OW 9399   2.875   1.843   5.740 -0.4883 -0.3421 -0.3026
 3074SOL    HW1 9400   2.814   1.918   5.716  0.8187  0.8686  0.0094
 3074SOL    HW2 9401   2.963   1.855   5.693  1.5735  1.1682  3.5296
 3075SOL     OW 9402   3.921   5.284   3.468  0.6716  0.3763 -0.2908
 3075SOL    HW1 9403   3.944   5.204   3.522  0.7705  0.8368  0.3603
 3075SOL    HW2 9404   3.883   5.256   3.380  1.1816 -0.3833 -0.2758
 3076SOL     OW 9405   8.749   6.113   2.006  0.8493 -0.2658  0.0610
 3076SOL    HW1 9406   8.844   6.122   2.037  0.3341  0.4356  1.5483
 3076SOL    HW2 9407   8.708   6.033   2.050  0.1256  0.6957  1.1635
 3077SOL     OW 9408   2.053   3.573   7.301 -0.4819  0.1843 -0.4565
 3077SOL    HW1 9409   2.014   3.556   7.391 -3.5554  1.6945 -1.3741
 3077SOL    HW2 9410   2.046   3.490   7.246  0.1792 -0.3581  0.2635
 3078SOL     OW 9411   6.080   2.218   7.433 -0.1873 -0.6841 -0.5001
 3078SOL    HW1 9412   6.047   2.143   7.490  1.3951 -0.9554  0.0974
 3078SOL    HW2 9413   6.032   2.216   7.345 -2.1606 -0.6789  0.5253
 3079SOL     OW 9414   2.908   1.526   7.428  0.0777 -0.1294  0.2287
 3079SOL    HW1 9415   2.873   1.432   7.436 -0.7540  0.2145  0.7555
 3079SOL    HW2 9416   2.930   1.545   7.333  0.6013 -0.9749  0.1640
 3080SOL     OW 9417   7.166   5.747   2.463 -0.1502  0.0934 -0.1794
 3080SOL    HW1 9418   7.239   5.704   2.410 -0.4799  0.1769 -0.7185
 3080SOL    HW2 9419   7.133   5.683   2.532 -0.5368 -0.4787 -0.8786
 3081SOL     OW 9420   8.474   5.721   2.779  0.6658 -0.0194 -0.1647
 3081SOL    HW1 9421   8.418   5.711   2.861  1.0006 -0.2538  0.0373
 3081SOL    HW2 9422   8.417   5.754   2.704  0.5181  0.9150  0.3511
 3082SOL     OW 9423   8.104   7.758   1.244 -0.3061 -0.7735  0.0128
 3082SOL    HW1 9424   8.145   7.849   1.255 -1.2613 -0.2151 -0.8657
 3082SOL    HW2 9425   8.012   7.758   1.284  0.4696 -2.0182  1.9821
 3083SOL     OW 9426   1.720   3.236   4.060 -0.1718  0.5739 -0.5764
 3083SOL    HW1 9427   1.649   3.304   4.040 -1.4024 -0.8754 -1.4225
 3083SOL    HW2 9428   1.693   3.148   4.020  1.3427 -0.4273  0.5072
 3084SOL     OW 9429   4.067   5.616   6.399  0.1835 -0.2270  0.1220
 3084SOL    HW1 9430   4.138   5.594   6.466 -0.8866 -2.0828  0.7208
 3084SOL    HW2 9431   3.980   5.629   6.446  0.0408  1.9187 -0.6120
 3085SOL     OW 9432   0.569   7.022   6.839  0.3473 -0.0330 -0.4046
 3085SOL    HW1 9433   0.517   7.035   6.755 -0.4216 -1.2048 -0.1307
 3085SOL    HW2 9434   0.590   7.111   6.879 -1.5257  0.4909 -0.4905
 3086SOL     OW 9435   6.379   2.528   0.314  0.0694 -0.0278 -0.0367
 3086SOL    HW1 9436   6.327   2.480   0.244  1.6005 -1.3357 -0.3385
 3086SOL    HW2 9437   6.471   2.548   0.280  1.1073 -1.3397  1.7959
 3087SOL     OW 9438   4.590   3.761   2.754  0.4400  1.0975 -0.4391
 3087SOL    HW1 9439   4.559   3.666   2.752 -0.6015  1.3966  0.4078
 3087SOL    HW2 9440   4.624   3.783   2.846  2.0491  1.1490 -1.0047
 3088SOL     OW 9441   4.995   1.512   3.466 -0.1438 -0.1216  0.1573
 3088SOL    HW1 9442   5.015   1.418   3.492 -1.3979 -0.8299 -1.2713
 3088SOL    HW2 9443   4.896   1.528   3.469  0.0655  1.2413  0.6300
 3089SOL     OW 9444   3.447   4.015   4.544 -0.3143 -0.1880  0.3618
 3089SOL    HW1 9445   3.348   4.022   4.535 -0.1730  1.0506 -0.5393
 3089SOL    HW2 9446   3.486   3.988   4.456  0.4094  3.0679 -0.4305
 3090SOL     OW 9447   7.733   5.862   8.059  0.1432 -0.4583  0.3859
 3090SOL    HW1 9448   7.775   5.782   8.101  1.0214 -0.6654 -0.8167
 3090SOL    HW2 9449   7.653   5.889   8.111 -0.3585 -2.3158  0.6562
 3091SOL     OW 9450   1.826   7.894   8.225 -0.1313 -0.2056  0.2708
 3091SOL    HW1 9451   1.833   7.795   8.238 -2.6552 -0.3695  1.0512
 3091SOL    HW2 9452   1.885   7.922   8.150  3.7448 -1.6223  2.5005
 3092SOL     OW 9453   8.212   0.599   5.941  0.0554  0.1229  0.1280
 3092SOL    HW1 9454   8.139   0.613   5.875 -0.2782 -0.6863  0.3186
 3092SOL    HW2 9455   8.175   0.557   6.024  0.2573  2.0962  1.2877
 3093SOL     OW 9456   0.453   3.114   2.196 -0.5065  0.1480 -0.0095
 3093SOL    HW1 9457   0.530   3.120   2.133 -0.6782 -1.5379 -0.4318
 3093SOL    HW2 9458   0.411   3.023   2.189 -0.5859 -0.0838  2.4623
 3094SOL     OW 9459   3.685   4.291   0.437  0.8373 -0.1052 -0.4939
 3094SOL    HW1 9460   3.779   4.271   0.462  0.7952  0.1522 -0.1257
 3094SOL    HW2 9461   3.677   4.294   0.337  1.0242 -1.0398 -0.5422
 3095SOL     OW 9462   3.860   1.886   4.000 -0.0119  0.6199  0.1553
 3095SOL    HW1 9463   3.872   1.814   3.932  0.2504  0.7943  0.0149
 3095SOL    HW2 9464   3.840   1.973   3.954 -0.3785  0.6278  0.3259
 3096SOL     OW 9465   1.288   0.158   0.638 -0.2277 -0.1328 -0.2169
 3096SOL    HW1 9466   1.378   0.192   0.611  0.1684 -1.9238 -1.3062
 3096SOL    HW2 9467   1.244   0.225   0.698  1.4849  1.1353 -0.2950
 3097SOL     OW 9468   3.245   8.243   4.506  0.3771 -0.8128 -0.1505
 3097SOL    HW1 9469   3.254   8.152   4.467 -2.4346 -0.9473 -0.7473
 3097SOL    HW2 9470   3.187   8.239   4.588  0.9520  0.3375  0.3424
 3098SOL     OW 9471   1.669   2.100   2.590  0.1360 -0.0682  0.3195
 3098SOL    HW1 9472   1.724   2.169   2.636  1.3883 -1.1787  0.5390
 3098SOL    HW2 9473   1.672   2.117   2.491 -0.7415  1.0054  0.4539
 3099SOL     OW 9474   7.234   8.565   7.897 -0.1598 -0.4654  0.0352
 3099SOL    HW1 9475   7.208   8.509   7.975  0.5983  0.0715  0.6799
 3099SOL    HW2 9476   7.246   8.660   7.926 -1.3120  0.0419 -1.0114
 3100SOL     OW 9477   1.206   1.325   4.536 -0.0712 -0.2800 -0.0260
 3100SOL    HW1 9478   1.220   1.231   4.567 -0.1805 -0.4774 -0.5582
 3100SOL    HW2 9479   1.129   1.365   4.584 -0.9215 -0.9443 -0.7899
 3101SOL     OW 9480   4.234   0.723   7.878 -0.0005  0.5449  0.4414
 3101SOL    HW1 9481   4.268   0.629   7.878  0.2979  0.6231 -0.8816
 3101SOL    HW2 9482   4.309   0.786   7.858 -0.8268  0.6844 -2.9977
 3102SOL     OW 9483   8.137   6.922   8.233  0.1994 -0.2752  0.2421
 3102SOL    HW1 9484   8.128   6.824   8.249  0.3545 -0.1277  1.2444
 3102SOL    HW2 9485   8.102   6.943   8.141  0.0919 -1.2475  0.0454
 3103SOL     OW 9486   0.638   0.166   6.414  0.0533 -0.1347 -0.2260
 3103SOL    HW1 9487   0.708   0.096   6.405  0.1347 -0.5346  2.7000
 3103SOL    HW2 9488   0.669   0.237   6.476 -0.4143  2.0980 -2.3747
 3104SOL     OW 9489   3.132   1.063   6.448 -0.2288  0.2074 -0.0761
 3104SOL    HW1 9490   3.147   1.066   6.547 -1.2200  0.6352  0.0803
 3104SOL    HW2 9491   3.216   1.036   6.402  0.4574  0.7229  0.8332
 3105SOL     OW 9492   3.137   0.835   6.904  0.4688 -0.3028  0.8776
 3105SOL    HW1 9493   3.213   0.784   6.863 -1.4286 -1.0072 -2.1023
 3105SOL    HW2 9494   3.051   0.804   6.863 -1.3553  1.3007  3.2435
 3106SOL     OW 9495   0.278   5.079   8.330 -0.5746 -0.7044  0.0879
 3106SOL    HW1 9496   0.231   5.117   8.410  1.5172  0.5980  0.7719
 3106SOL    HW2 9497   0.230   5.110   8.247 -2.2467 -1.3445  0.7633
 3107SOL     OW 9498   8.538   7.066   7.701  0.0569 -0.3909  0.1288
 3107SOL    HW1 9499   8.442   7.057   7.674  0.1873 -0.4227 -0.3322
 3107SOL    HW2 9500   8.596   7.064   7.620  0.4090  0.1730  0.3564
 3108SOL     OW 9501   0.499   6.316   3.032 -0.0267  0.0650 -0.0362
 3108SOL    HW1 9502   0.475   6.364   2.947 -0.0731 -0.1613 -0.1498
 3108SOL    HW2 9503   0.430   6.247   3.052 -0.8200  1.0941  0.9648
 3109SOL     OW 9504   0.777   1.816   1.413  0.1096 -0.0855  0.0779
 3109SOL    HW1 9505   0.759   1.872   1.331  1.1035 -1.8947 -1.4511
 3109SOL    HW2 9506   0.692   1.770   1.441 -0.2525  0.5985  0.1180
 3110SOL     OW 9507   2.657   5.585   6.292 -0.3366  0.2098  0.6060
 3110SOL    HW1 9508   2.591   5.510   6.288  0.7486 -0.7918  1.1326
 3110SOL    HW2 9509   2.729   5.563   6.357  2.4822 -0.3122 -2.4636
 3111SOL     OW 9510   1.114   4.467   1.227 -0.3682 -0.3167 -0.3240
 3111SOL    HW1 9511   1.173   4.534   1.182 -1.5662 -0.3633 -2.0296
 3111SOL    HW2 9512   1.028   4.510   1.254 -0.0621 -0.5309  1.1270
 3112SOL     OW 9513   0.337   6.342   3.683 -0.0360 -0.2597 -0.0220
 3112SOL    HW1 9514   0.248   6.316   3.646 -0.3279  0.8961 -0.1570
 3112SOL    HW2 9515   0.363   6.278   3.755 -1.3455 -0.1478  0.5670
 3113SOL     OW 9516   1.577   0.958   1.159  0.4578  0.2354 -0.1330
 3113SOL    HW1 9517   1.560   0.923   1.067 -1.2005 -0.0541  0.2650
 3113SOL    HW2 9518   1.593   0.882   1.222  0.0221  0.3582  0.1260
 3114SOL     OW 9519   0.149   0.599   6.324 -0.2391 -0.2436 -0.3502
 3114SOL    HW1 9520   0.083   0.595   6.398  1.0514  0.9009  0.9414
 3114SOL    HW2 9521   0.200   0.513   6.319 -0.0926 -0.1995  0.3479
 3115SOL     OW 9522   4.939   6.742   1.249  0.2360  0.6489  0.2240
 3115SOL    HW1 9523   4.858   6.755   1.306  0.5542  1.7776  0.4500
 3115SOL    HW2 9524   4.992   6.827   1.246  0.4451  0.4978 -1.4374
 3116SOL     OW 9525   7.884   5.266   8.047 -0.1049  0.2039  0.0971
 3116SOL    HW1 9526   7.928   5.334   8.105  0.8887 -0.8277  0.5989
 3116SOL    HW2 9527   7.942   5.246   7.968  0.1996 -0.9389  0.5931
 3117SOL     OW 9528   0.482   6.201   6.377  0.2395 -0.2011 -0.5318
 3117SOL    HW1 9529   0.411   6.140   6.412  0.2469 -1.1503 -2.0755
 3117SOL    HW2 9530   0.442   6.290   6.355 -0.6810 -0.9613 -2.0925
 3118SOL     OW 9531   4.674   7.370   3.134  0.3178  0.4895  0.8837
 3118SOL    HW1 9532   4.711   7.301   3.197 -2.6074 -2.1680 -0.0650
 3118SOL    HW2 9533   4.582   7.395   3.163 -1.1710 -0.8758 -2.1897
 3119SOL     OW 9534   3.679   6.270   5.967  0.1421 -0.1089 -0.1089
 3119SOL    HW1 9535   3.678   6.218   6.052  0.8113  0.5526  0.3112
 3119SOL    HW2 9536   3.650   6.364   5.985 -1.3255 -0.3775 -0.9086
 3120SOL     OW 9537   3.707   7.478   1.600  0.3049 -0.3649 -0.7314
 3120SOL    HW1 9538   3.802   7.507   1.586  0.6112 -0.3237  1.1510
 3120SOL    HW2 9539   3.645   7.550   1.569  0.8133 -0.7963 -2.9174
 3121SOL     OW 9540   4.180   8.657   0.301 -0.0790  0.3160 -0.4426
 3121SOL    HW1 9541   4.188   8.618   0.393 -0.8891  0.9081 -0.1144
 3121SOL    HW2 9542   4.190   8.756   0.305  0.6956  0.2799 -1.1100
 3122SOL     OW 9543   7.345   2.821   2.479 -1.0474  0.2319  0.7075
 3122SOL    HW1 9544   7.314   2.732   2.446  0.2251 -0.5380  1.5160
 3122SOL    HW2 9545   7.400   2.865   2.407 -1.6105  0.3328  0.3363
 3123SOL     OW 9546   1.410   1.534   2.484  0.0893  0.6759  0.0778
 3123SOL    HW1 9547   1.425   1.469   2.409 -0.1013  1.0791 -0.3160
 3123SOL    HW2 9548   1.325   1.583   2.468 -0.0802  0.5860  0.6952
 3124SOL     OW 9549   6.906   7.841   7.395 -0.0228  0.3961  0.2918
 3124SOL    HW1 9550   7.005   7.855   7.385 -0.1959  1.1391 -0.5674
 3124SOL    HW2 9551   6.863   7.843   7.305 -0.9703  1.3181  0.7430
 3125SOL     OW 9552   6.210   7.141   3.645 -0.0899 -0.2855  0.6310
 3125SOL    HW1 9553   6.241   7.188   3.728 -1.1776  2.3577 -0.3500
 3125SOL    HW2 9554   6.111   7.152   3.636  0.2810  1.5719 -2.1601
 3126SOL     OW 9555   2.584   0.071   3.255  0.3202 -0.2898  0.3003
 3126SOL    HW1 9556   2.612   0.166   3.240  0.5799 -0.5358 -0.8740
 3126SOL    HW2 9557   2.662   0.010   3.241 -0.2215 -0.7964 -0.6577
 3127SOL     OW 9558   6.599   8.041   8.475  0.0397 -0.2104 -0.1836
 3127SOL    HW1 9559   6.605   8.108   8.549 -2.0040 -2.0749  1.7930
 3127SOL    HW2 9560   6.512   8.052   8.426  0.9794  0.4167 -1.8113
 3128SOL     OW 9561   3.284   1.220   3.665  0.8240  0.1207  0.2222
 3128SOL    HW1 9562   3.299   1.124   3.641  0.2988 -0.3227  1.6142
 3128SOL    HW2 9563   3.351   1.248   3.734 -1.4015 -0.4193  2.7452
 3129SOL     OW 9564   4.524   3.230   2.174 -0.2525  0.5003 -0.0891
 3129SOL    HW1 9565   4.555   3.162   2.108 -0.7797 -0.6462  0.7952
 3129SOL    HW2 9566   4.579   3.223   2.257 -0.4520  1.0106  0.0904
 3130SOL     OW 9567   3.464   2.403   6.244  0.5459 -0.1676 -0.3512
 3130SOL    HW1 9568   3.515   2.469   6.189 -1.1494  1.1530 -0.4437
 3130SOL    HW2 9569   3.387   2.367   6.190 -0.3840  0.1847  0.6906
 3131SOL     OW 9570   0.731   8.210   4.732  0.4711 -0.3590 -0.1219
 3131SOL    HW1 9571   0.688   8.300   4.728  0.4260 -0.3770 -0.0639
 3131SOL    HW2 9572   0.668   8.142   4.696  0.1125 -0.5066  0.7595
 3132SOL     OW 9573   5.539   6.529   6.789  0.5372  0.0654  0.0522
 3132SOL    HW1 9574   5.496   6.619   6.779  0.0566  0.0976  2.0981
 3132SOL    HW2 9575   5.619   6.538   6.848  0.5311 -0.8492  0.2012
 3133SOL     OW 9576   2.745   7.660   7.835  0.3394  0.1903 -0.1925
 3133SOL    HW1 9577   2.735   7.642   7.932  3.9721  0.3813  0.3815
 3133SOL    HW2 9578   2.713   7.581   7.782 -0.7359 -0.3237  1.1821
 3134SOL     OW 9579   3.448   5.734   6.786 -0.1660  0.0853  0.3953
 3134SOL    HW1 9580   3.462   5.801   6.713 -0.1378  1.1380  1.3428
 3134SOL    HW2 9581   3.477   5.644   6.754 -0.4166  0.4635 -0.9834
 3135SOL     OW 9582   0.028   7.013   7.787  0.1529  0.2410  0.0384
 3135SOL    HW1 9583   0.038   7.092   7.726 -1.5580  0.7934  0.4114
 3135SOL    HW2 9584   0.044   7.042   7.882 -2.9866  0.8526  0.4997
 3136SOL     OW 9585   6.201   1.484   2.140 -0.8095  0.5381  0.3089
 3136SOL    HW1 9586   6.253   1.568   2.124 -0.8754  0.2527 -1.7315
 3136SOL    HW2 9587   6.104   1.507   2.149 -0.9245  0.6671 -0.9894
 3137SOL     OW 9588   5.199   2.696   2.428  0.0378  0.1465 -0.4328
 3137SOL    HW1 9589   5.258   2.623   2.393  3.0374  2.2468 -0.1149
 3137SOL    HW2 9590   5.148   2.736   2.352 -0.5459 -1.3016 -0.8356
 3138SOL     OW 9591   3.316   1.053   6.006  0.1305 -0.2598  0.3005
 3138SOL    HW1 9592   3.248   1.112   5.962  0.4300 -0.3363 -0.2706
 3138SOL    HW2 9593   3.277   0.962   6.020  0.2698 -0.4448 -0.4662
 3139SOL     OW 9594   2.963   5.535   7.173 -0.0753  0.3487  0.0371
 3139SOL    HW1 9595   3.024   5.514   7.097 -0.1871 -1.5213  0.4264
 3139SOL    HW2 9596   2.886   5.471   7.172 -1.0212  1.4306  0.7063
 3140SOL     OW 9597   0.705   0.815   7.014 -0.4641 -0.4896  0.1420
 3140SOL    HW1 9598   0.641   0.877   6.969  0.3374  0.2363 -0.0307
 3140SOL    HW2 9599   0.727   0.850   7.105 -1.2555 -1.3918  0.7010
 3141SOL     OW 9600   1.538   2.039   2.960 -0.7725  0.0364  0.0006
 3141SOL    HW1 9601   1.610   2.102   2.989  0.3536 -0.1984 -2.1195
 3141SOL    HW2 9602   1.471   2.088   2.903 -0.7373 -0.3469 -0.3754
 3142SOL     OW 9603   8.574   1.849   6.742  0.1336  0.3629  0.0957
 3142SOL    HW1 9604   8.488   1.798   6.748  0.1472  0.0553 -1.7020
 3142SOL    HW2 9605   8.566   1.934   6.794 -0.4240 -0.7263  1.8776
 3143SOL     OW 9606   3.396   3.845   5.178 -0.1274 -0.3271 -0.0086
 3143SOL    HW1 9607   3.367   3.849   5.274 -0.1892 -1.2375  0.0154
 3143SOL    HW2 9608   3.495   3.856   5.173 -0.1263 -0.2488  0.1539
 3144SOL     OW 9609   5.638   1.634   1.880 -0.6364 -0.0697  0.4860
 3144SOL    HW1 9610   5.704   1.560   1.865 -0.4005 -0.1207  1.6818
 3144SOL    HW2 9611   5.548   1.605   1.850 -0.4518 -0.6593  0.4901
 3145SOL     OW 9612   0.165   4.357   6.819  0.1757 -0.0550  0.0585
 3145SOL    HW1 9613   0.174   4.301   6.736  0.0655  0.7768 -0.5348
 3145SOL    HW2 9614   0.254   4.362   6.865  0.0042 -1.3685  0.5701
 3146SOL     OW 9615   0.222   8.097   4.206 -0.4774 -0.1005 -0.0870
 3146SOL    HW1 9616   0.297   8.160   4.183  0.6820 -1.3976 -0.0036
 3146SOL    HW2 9617   0.200   8.041   4.126 -0.7538 -0.3419  0.1575
 3147SOL     OW 9618   4.176   4.620   2.419  0.4908 -0.0194  0.1474
 3147SOL    HW1 9619   4.157   4.649   2.325  2.5161  1.0143 -0.0042
 3147SOL    HW2 9620   4.208   4.699   2.472 -1.6812 -0.3358  2.0583
 3148SOL     OW 9621   0.654   4.791   3.110  0.4916 -0.4679  0.0502
 3148SOL    HW1 9622   0.746   4.753   3.123  0.5022 -0.7655 -0.8213
 3148SOL    HW2 9623   0.591   4.749   3.175  0.7993 -0.9083  0.0659
 3149SOL     OW 9624   0.939   1.429   1.877  0.3146 -0.7225  0.2114
 3149SOL    HW1 9625   0.972   1.523   1.877  0.4241 -0.7534 -0.3513
 3149SOL    HW2 9626   0.899   1.407   1.788 -4.1974  0.2794  1.7521
 3150SOL     OW 9627   6.742   7.821   0.643 -0.2312 -0.2787 -0.0502
 3150SOL    HW1 9628   6.821   7.787   0.694 -0.5592 -1.2600 -0.1754
 3150SOL    HW2 9629   6.660   7.815   0.699 -0.4237 -0.4042 -0.3423
 3151SOL     OW 9630   4.891   7.522   0.271  0.6790 -0.6232  0.1109
 3151SOL    HW1 9631   4.859   7.465   0.195  0.5384 -0.6636  0.1993
 3151SOL    HW2 9632   4.985   7.498   0.293  1.3872  0.6955 -1.2969
 3152SOL     OW 9633   4.304   6.263   8.702 -0.2040 -0.2343 -0.2977
 3152SOL    HW1 9634   4.280   6.286   8.796  0.0049  2.4386 -0.8196
 3152SOL    HW2 9635   4.382   6.200   8.702  0.4016  0.4783  1.3175
 3153SOL     OW 9636   3.051   8.166   6.421  0.2217  0.4332  0.3479
 3153SOL    HW1 9637   3.091   8.074   6.425  0.4639  0.4807 -0.6985
 3153SOL    HW2 9638   3.124   8.234   6.416  0.0322  0.5975 -0.2611
 3154SOL     OW 9639   2.188   5.933   3.937  1.0114  0.4125 -0.0447
 3154SOL    HW1 9640   2.218   6.002   3.871 -0.4451  0.7767 -0.3561
 3154SOL    HW2 9641   2.099   5.959   3.975  1.2773 -0.3842  1.2063
 3155SOL     OW 9642   1.109   8.640   6.549 -0.4551 -0.7188  0.4581
 3155SOL    HW1 9643   1.042   8.615   6.619  0.9589 -1.2751  1.6557
 3155SOL    HW2 9644   1.129   8.738   6.556 -1.4815 -0.4370 -0.2435
 3156SOL     OW 9645   2.352   1.866   1.098  0.2609 -0.0189 -0.6314
 3156SOL    HW1 9646   2.362   1.965   1.086 -0.1881  0.1350  0.1733
 3156SOL    HW2 9647   2.432   1.830   1.146  0.3595 -0.0274 -0.7997
 3157SOL     OW 9648   3.633   2.362   2.806 -0.4172 -0.1687 -0.8999
 3157SOL    HW1 9649   3.583   2.342   2.722 -2.4508 -2.5244  0.7517
 3157SOL    HW2 9650   3.599   2.448   2.845 -0.3871  0.2498 -1.7636
 3158SOL     OW 9651   5.695   6.108   2.403 -0.1003 -1.0310  0.1270
 3158SOL    HW1 9652   5.636   6.038   2.444  0.0975  0.0239  2.3618
 3158SOL    HW2 9653   5.787   6.101   2.442  0.8211 -1.4927 -1.9842
 3159SOL     OW 9654   1.277   4.916   5.300  0.3005 -0.4545 -0.1232
 3159SOL    HW1 9655   1.253   4.852   5.227  1.9858 -0.0853 -1.0559
 3159SOL    HW2 9656   1.286   5.008   5.262  0.0043 -0.0353  0.7941
 3160SOL     OW 9657   6.121   4.515   1.605 -0.1581  0.7530 -0.4855
 3160SOL    HW1 9658   6.166   4.432   1.639 -1.1739 -0.3668 -1.7476
 3160SOL    HW2 9659   6.190   4.585   1.586  0.8559 -0.2392 -0.5581
 3161SOL     OW 9660   5.456   4.219   8.014  0.2989 -0.0756 -0.1129
 3161SOL    HW1 9661   5.458   4.317   7.993 -0.0857  0.3306  1.5296
 3161SOL    HW2 9662   5.458   4.166   7.930  0.5419  1.3444 -1.0355
 3162SOL     OW 9663   0.874   2.220   1.123 -0.4166  0.0690  0.3868
 3162SOL    HW1 9664   0.909   2.310   1.097 -0.9130  0.7475  1.9324
 3162SOL    HW2 9665   0.924   2.187   1.204 -0.8533 -0.6225  0.3878
 3163SOL     OW 9666   7.075   2.106   1.125  0.2803  0.1710  0.3870
 3163SOL    HW1 9667   6.977   2.100   1.144 -0.0303  0.6790 -0.9152
 3163SOL    HW2 9668   7.121   2.154   1.200 -0.5732  0.5189  0.7025
 3164SOL     OW 9669   2.040   2.201   6.385 -0.4056 -0.1381  0.0931
 3164SOL    HW1 9670   2.068   2.129   6.321  0.6486  1.0652 -0.8495
 3164SOL    HW2 9671   2.047   2.167   6.478  0.8131 -1.0118 -0.2948
 3165SOL     OW 9672   6.201   0.049   6.644 -0.2451 -0.5948  0.0119
 3165SOL    HW1 9673   6.184   0.058   6.742  0.9946 -0.6854  0.2535
 3165SOL    HW2 9674   6.250  -0.037   6.626  2.3741  0.8247 -0.2469
 3166SOL     OW 9675   3.911   3.076   2.877  0.3542  0.0060 -0.6614
 3166SOL    HW1 9676   3.968   3.136   2.933  0.4064 -0.8167  0.1758
 3166SOL    HW2 9677   3.856   3.017   2.935 -0.7284  0.1886 -1.4685
 3167SOL     OW 9678   4.480   2.815   8.556 -0.4073  0.2066  0.1077
 3167SOL    HW1 9679   4.557   2.828   8.619 -0.8787 -1.1178  1.0050
 3167SOL    HW2 9680   4.413   2.887   8.571  0.4492  1.1454 -0.4062
 3168SOL     OW 9681   3.348   1.953   1.493 -0.0533 -0.8088 -0.8992
 3168SOL    HW1 9682   3.256   1.916   1.503  0.1577 -2.0805 -3.0165
 3168SOL    HW2 9683   3.370   2.010   1.572 -3.1279  0.5868 -0.9186
 3169SOL     OW 9684   3.662   3.055   5.598 -0.2049  0.2408 -0.0300
 3169SOL    HW1 9685   3.623   3.056   5.506  0.6078  1.5383 -0.3909
 3169SOL    HW2 9686   3.683   3.149   5.626  0.9647 -0.2588  0.8579
 3170SOL     OW 9687   6.621   3.212   1.664 -0.3235 -0.1171 -0.5198
 3170SOL    HW1 9688   6.598   3.192   1.759 -1.7687 -0.5008 -0.9374
 3170SOL    HW2 9689   6.613   3.310   1.647  1.6464  0.2120  0.1709
 3171SOL     OW 9690   7.287   2.797   0.368 -0.7673 -0.4078 -0.1115
 3171SOL    HW1 9691   7.200   2.844   0.385 -0.6575  0.2803 -1.3741
 3171SOL    HW2 9692   7.284   2.749   0.281  0.1382 -0.3204 -0.2063
 3172SOL     OW 9693   8.413   4.910   6.025  0.7730  0.4593  0.2648
 3172SOL    HW1 9694   8.361   4.955   5.952  0.3685 -0.6883 -0.1670
 3172SOL    HW2 9695   8.445   4.821   5.994  0.5270 -0.0887  1.5078
 3173SOL     OW 9696   3.432   2.598   7.570 -0.0697  0.4093  0.0182
 3173SOL    HW1 9697   3.510   2.557   7.618 -1.4058 -0.1517  1.8376
 3173SOL    HW2 9698   3.407   2.541   7.493  1.6111  0.8800 -0.9387
 3174SOL     OW 9699   1.157   5.283   3.823  0.2244  0.0919 -0.4168
 3174SOL    HW1 9700   1.064   5.317   3.812 -0.4608 -1.8180 -0.9271
 3174SOL    HW2 9701   1.185   5.289   3.919 -0.0571  1.4976 -0.4017
 3175SOL     OW 9702   4.134   3.016   7.699  0.1724 -0.6239  0.3640
 3175SOL    HW1 9703   4.158   2.921   7.679 -0.7596 -1.2198  1.9019
 3175SOL    HW2 9704   4.209   3.076   7.671  1.1040 -1.8871  0.0764
 3176SOL     OW 9705   1.446   6.300   6.465  0.4371  0.6305  0.1324
 3176SOL    HW1 9706   1.523   6.340   6.416  2.4351 -2.1883  0.7033
 3176SOL    HW2 9707   1.480   6.249   6.544 -1.8836 -1.8103 -0.3052
 3177SOL     OW 9708   7.735   6.255   7.890  0.1767  0.4789  0.0934
 3177SOL    HW1 9709   7.776   6.168   7.862 -0.6509  0.5166 -1.3720
 3177SOL    HW2 9710   7.788   6.331   7.852 -0.8571  0.5323 -1.3784
 3178SOL     OW 9711   5.978   0.347   4.767  0.1830 -0.2625 -0.2687
 3178SOL    HW1 9712   5.989   0.259   4.721 -1.5693 -0.8819  0.4209
 3178SOL    HW2 9713   6.067   0.393   4.773  0.9006 -1.3619 -1.8372
 3179SOL     OW 9714   3.118   0.983   8.599 -0.2596  0.5462 -0.2978
 3179SOL    HW1 9715   3.057   0.905   8.606  1.8370 -1.2521 -0.8164
 3179SOL    HW2 9716   3.074   1.064   8.637 -1.2017 -1.6160  3.6852
 3180SOL     OW 9717   7.944   2.655   1.794 -0.0713  0.8015  0.4299
 3180SOL    HW1 9718   7.865   2.709   1.824  0.8220  1.6171  1.4252
 3180SOL    HW2 9719   8.022   2.716   1.778  1.3246 -0.2134  2.7242
 3181SOL     OW 9720   8.855   2.870   8.277  0.1669 -0.4959 -0.5218
 3181SOL    HW1 9721   8.945   2.901   8.309  0.1619 -0.8769 -0.1348
 3181SOL    HW2 9722   8.791   2.870   8.353  0.2468 -1.7708 -0.4464
 3182SOL     OW 9723   7.005   4.771   4.087  0.4995  0.3972 -0.2517
 3182SOL    HW1 9724   7.039   4.695   4.033 -1.8821  0.1363 -1.5212
 3182SOL    HW2 9725   7.030   4.757   4.183  2.0991 -0.7365 -0.7853
 3183SOL     OW 9726   5.768   3.855   6.249 -0.0166  0.7950 -0.1982
 3183SOL    HW1 9727   5.724   3.781   6.298  2.0274  0.0836  0.6761
 3183SOL    HW2 9728   5.703   3.931   6.237 -1.3662 -0.0877  1.1826
 3184SOL     OW 9729   4.167   3.490   1.541 -0.6439  0.0218 -0.0917
 3184SOL    HW1 9730   4.091   3.547   1.572 -0.0726  0.2723  0.8938
 3184SOL    HW2 9731   4.248   3.508   1.598  0.2128 -0.0970 -1.2348
 3185SOL     OW 9732   3.413   7.489   7.818 -0.2769 -0.2374 -0.1301
 3185SOL    HW1 9733   3.502   7.464   7.856  1.4676  1.3217 -2.8300
 3185SOL    HW2 9734   3.403   7.448   7.727 -3.2514 -1.9676  0.8598
 3186SOL     OW 9735   0.934   0.782   5.556 -0.0257  0.3372  0.0749
 3186SOL    HW1 9736   0.977   0.864   5.593  2.1858 -0.4503 -0.5828
 3186SOL    HW2 9737   0.977   0.701   5.595  0.7156 -0.4977 -2.2787
 3187SOL     OW 9738   6.083   6.119   6.924 -0.3117  0.0221 -0.2306
 3187SOL    HW1 9739   6.154   6.105   6.855  1.6745  1.3198  1.4163
 3187SOL    HW2 9740   6.007   6.171   6.884  0.8704  0.9314 -1.4007
 3188SOL     OW 9741   1.386   2.468   4.404 -0.3459 -0.3459 -0.4310
 3188SOL    HW1 9742   1.405   2.539   4.337 -2.1174  1.6672  1.0207
 3188SOL    HW2 9743   1.291   2.478   4.436 -0.2316 -2.5784  0.7927
 3189SOL     OW 9744   6.326   5.960   2.034 -0.6892 -0.0115  0.6969
 3189SOL    HW1 9745   6.387   6.038   2.046  1.3610 -1.5961  1.2619
 3189SOL    HW2 9746   6.377   5.884   1.993 -2.5760 -1.1087  0.2539
 3190SOL     OW 9747   0.289   1.617   3.870 -0.0289 -0.2187 -0.1484
 3190SOL    HW1 9748   0.241   1.536   3.835  0.3986 -0.8500  0.6797
 3190SOL    HW2 9749   0.296   1.610   3.970  0.7361  0.4479 -0.1516
 3191SOL     OW 9750   8.064   7.084   3.123  0.2164  0.3778 -0.5334
 3191SOL    HW1 9751   8.080   7.150   3.050 -1.4443  0.4868 -0.8408
 3191SOL    HW2 9752   8.047   6.993   3.083 -1.5333  0.6047 -0.3704
 3192SOL     OW 9753   4.424   6.948   7.538  0.5897  0.5041  0.1523
 3192SOL    HW1 9754   4.368   6.989   7.466  1.9385 -0.1686 -1.3652
 3192SOL    HW2 9755   4.504   6.904   7.496  1.6680  0.4730  2.1222
 3193SOL     OW 9756   2.151   7.874   8.660  0.3818 -0.1269  0.1679
 3193SOL    HW1 9757   2.158   7.957   8.714  0.2510  0.8010 -1.1913
 3193SOL    HW2 9758   2.236   7.860   8.610 -0.5069  0.6935 -1.6664
 3194SOL     OW 9759   1.393   4.062   5.740  0.2000  0.1643  0.6197
 3194SOL    HW1 9760   1.430   4.008   5.814  0.9065 -0.3511 -0.0933
 3194SOL    HW2 9761   1.317   4.118   5.774  0.1184 -0.5074  1.5848
 3195SOL     OW 9762   0.754   2.679   2.283  0.5867 -0.1555 -0.6040
 3195SOL    HW1 9763   0.830   2.739   2.307  1.1151 -1.4615  1.1781
 3195SOL    HW2 9764   0.788   2.585   2.271 -0.7484 -0.8201  0.5069
 3196SOL     OW 9765   1.666   7.182   8.723  0.5792  0.1103  0.1672
 3196SOL    HW1 9766   1.717   7.252   8.773  1.0285  0.0968 -0.2704
 3196SOL    HW2 9767   1.607   7.132   8.787  0.9018  0.3114  0.6292
 3197SOL     OW 9768   1.940   8.380   5.248  0.6242 -0.5259  0.2592
 3197SOL    HW1 9769   1.888   8.319   5.187  0.0390 -0.6435  0.8624
 3197SOL    HW2 9770   1.919   8.357   5.343  0.8371  0.2563  0.4983
 3198SOL     OW 9771   5.083   0.424   4.541  0.3040 -0.8330  0.2723
 3198SOL    HW1 9772   5.024   0.503   4.556  1.3032 -0.1118  0.5420
 3198SOL    HW2 9773   5.050   0.371   4.463 -0.6792 -0.4442  0.4179
 3199SOL     OW 9774   6.584   1.506   1.655  0.1060  0.5151  0.1774
 3199SOL    HW1 9775   6.556   1.411   1.665  1.6492  0.0360  0.1606
 3199SOL    HW2 9776   6.588   1.550   1.745  0.0773  0.3582  0.2544
 3200SOL     OW 9777   8.632   0.741   0.986  0.1417  0.1827 -0.4852
 3200SOL    HW1 9778   8.550   0.789   1.015  0.2760  0.8298 -1.1320
 3200SOL    HW2 9779   8.711   0.776   1.036 -0.0473 -0.8644  0.5775
 3201SOL     OW 9780   2.576   2.528   0.405 -0.3147  0.0951 -0.0799
 3201SOL    HW1 9781   2.563   2.478   0.320 -1.7180  1.3063 -0.6373
 3201SOL    HW2 9782   2.579   2.626   0.386 -0.6110  0.3885  1.2511
 3202SOL     OW 9783   7.630   2.248   2.390  0.4585 -0.1195 -0.0991
 3202SOL    HW1 9784   7.644   2.333   2.341  0.7771 -0.4043 -0.5055
 3202SOL    HW2 9785   7.695   2.179   2.358 -0.3705 -0.7775 -0.3913
 3203SOL     OW 9786   6.274   4.875   2.762  0.3395  0.3418  0.2649
 3203SOL    HW1 9787   6.252   4.786   2.800  1.4997 -0.3828 -0.6802
 3203SOL    HW2 9788   6.250   4.947   2.827  0.8806 -0.7584  1.7110
 3204SOL     OW 9789   2.466   0.793   5.177  0.6284 -0.1443  0.1308
 3204SOL    HW1 9790   2.550   0.799   5.231  0.9607 -0.1028 -0.3875
 3204SOL    HW2 9791   2.408   0.872   5.197  0.4286 -0.4841  0.9536
 3205SOL     OW 9792   1.213   7.910   2.502  0.2338  0.5809  0.1095
 3205SOL    HW1 9793   1.283   7.981   2.506 -0.2878  1.0735  0.6626
 3205SOL    HW2 9794   1.122   7.952   2.509 -0.0673 -0.1870  1.0651
 3206SOL     OW 9795   4.171   7.385   1.142  0.2617  0.3220  0.6023
 3206SOL    HW1 9796   4.200   7.305   1.194  1.3406  0.3726  0.1014
 3206SOL    HW2 9797   4.089   7.424   1.183  0.7212 -0.0186  1.8683
 3207SOL     OW 9798   2.750   8.656   4.403  1.0169 -0.1819  0.0098
 3207SOL    HW1 9799   2.709   8.743   4.378  0.4522 -0.3262  0.4099
 3207SOL    HW2 9800   2.768   8.602   4.321 -1.5560 -0.9968 -0.1008
 3208SOL     OW 9801   0.597   4.290   3.972  0.3391  0.0498 -0.1056
 3208SOL    HW1 9802   0.504   4.253   3.969  0.0566  0.6332  0.9071
 3208SOL    HW2 9803   0.663   4.218   3.950 -0.1868 -1.1492  1.9207
 3209SOL     OW 9804   2.037   1.272   0.227  0.1612  0.4697 -0.0609
 3209SOL    HW1 9805   2.041   1.185   0.277  0.5595  0.2562 -0.4578
 3209SOL    HW2 9806   2.069   1.258   0.133 -1.4657  0.6483 -0.6825
 3210SOL     OW 9807   0.991   7.071   4.099 -0.2228 -0.0590 -0.1130
 3210SOL    HW1 9808   0.982   7.044   4.195 -0.8800  0.9447  0.1214
 3210SOL    HW2 9809   0.983   7.171   4.092  1.5807  0.0485 -1.0086
 3211SOL     OW 9810   0.292   0.723   1.421 -0.4476 -0.4294  0.3637
 3211SOL    HW1 9811   0.326   0.773   1.341  0.6286  0.9489  1.6346
 3211SOL    HW2 9812   0.222   0.776   1.467 -0.8884 -1.1039  0.4890
 3212SOL     OW 9813   1.524   8.791   1.699 -0.4646 -0.0993  0.2143
 3212SOL    HW1 9814   1.591   8.842   1.752  0.1580 -1.0868  0.3925
 3212SOL    HW2 9815   1.556   8.781   1.605  0.2077 -1.5646  0.5775
 3213SOL     OW 9816   1.211   0.476   0.544  0.6870 -0.2299  0.1620
 3213SOL    HW1 9817   1.144   0.484   0.471  0.4111 -2.1762  0.1528
 3213SOL    HW2 9818   1.303   0.480   0.506  0.5437 -0.9071 -0.2641
 3214SOL     OW 9819   2.044   2.940   4.214 -0.6714  0.4938  0.4152
 3214SOL    HW1 9820   2.062   2.843   4.201  1.3937  0.9604 -0.5348
 3214SOL    HW2 9821   2.096   2.974   4.292  0.5117  1.2895 -0.6711
 3215SOL     OW 9822   0.388   4.475   6.529  0.2223 -0.6183  0.1269
 3215SOL    HW1 9823   0.402   4.382   6.495 -0.5059 -0.8697  0.4895
 3215SOL    HW2 9824   0.421   4.481   6.623 -0.8594 -0.8675  0.5427
 3216SOL     OW 9825   3.427   5.848   0.082 -0.0129 -0.2200  0.4512
 3216SOL    HW1 9826   3.448   5.848  -0.015 -3.4228 -1.0865 -0.4184
 3216SOL    HW2 9827   3.426   5.943   0.116  0.0322  0.1917 -0.6610
 3217SOL     OW 9828   6.580   6.373   8.559 -0.3084 -0.0173  0.0097
 3217SOL    HW1 9829   6.563   6.275   8.547 -0.7649  0.1745 -1.0166
 3217SOL    HW2 9830   6.502   6.415   8.605 -0.0402 -0.1541  0.6028
 3218SOL     OW 9831   2.738   1.002   3.367 -1.1152  0.0729 -0.2121
 3218SOL    HW1 9832   2.809   1.040   3.308  1.3843 -1.8207  1.3983
 3218SOL    HW2 9833   2.705   1.073   3.430  0.0233  0.7765 -0.3873
 3219SOL     OW 9834   0.111   8.618   8.377  0.0889  0.1906  0.3263
 3219SOL    HW1 9835   0.126   8.547   8.446 -0.6263  0.7461  1.0717
 3219SOL    HW2 9836   0.198   8.660   8.352  0.2392  0.7278  1.7033
 3220SOL     OW 9837   2.502   1.259   1.917  0.3140 -0.1631 -0.2165
 3220SOL    HW1 9838   2.403   1.274   1.921  0.3647  0.0337  0.4228
 3220SOL    HW2 9839   2.542   1.323   1.851  0.0751  0.0894 -0.1228
 3221SOL     OW 9840   5.519   3.379   5.312 -0.2295  0.3769 -0.2350
 3221SOL    HW1 9841   5.534   3.319   5.391  0.6298 -1.1291 -1.4881
 3221SOL    HW2 9842   5.595   3.443   5.304  0.4872 -0.4925 -0.6821
 3222SOL     OW 9843   0.831   2.787   1.430  0.2737  0.1160  0.0257
 3222SOL    HW1 9844   0.807   2.882   1.414 -0.4146 -0.1575 -0.6293
 3222SOL    HW2 9845   0.755   2.741   1.476 -0.1913 -0.5700 -1.3676
 3223SOL     OW 9846   6.016   7.733   8.361  0.1729  0.3423  0.2159
 3223SOL    HW1 9847   5.943   7.731   8.293  0.2890 -0.0093  0.1013
 3223SOL    HW2 9848   6.086   7.798   8.332  0.4671 -0.1759 -0.2553
 3224SOL     OW 9849   8.641   3.240   4.453 -0.0898 -0.2348  0.0913
 3224SOL    HW1 9850   8.682   3.331   4.446 -1.5395  0.5761  1.3985
 3224SOL    HW2 9851   8.662   3.188   4.371  0.7123  1.3070 -0.7358
 3225SOL     OW 9852   6.209   4.064   2.316  0.0078 -0.3759 -0.2967
 3225SOL    HW1 9853   6.128   4.008   2.299  0.9096 -1.2596 -1.8981
 3225SOL    HW2 9854   6.183   4.160   2.321 -0.9305 -0.4612 -2.6097
 3226SOL     OW 9855   4.670   0.325   1.401  0.7297  0.7194 -0.2922
 3226SOL    HW1 9856   4.701   0.418   1.383  1.1463  0.7159  0.3659
 3226SOL    HW2 9857   4.678   0.270   1.318  0.2621  1.3277 -0.7410
 3227SOL     OW 9858   0.989   8.328   7.284  0.2003  0.2130  0.2827
 3227SOL    HW1 9859   0.928   8.271   7.228  2.2771 -2.1080  0.1968
 3227SOL    HW2 9860   1.060   8.368   7.226  1.3534 -0.7938  0.9477
 3228SOL     OW 9861   7.290   1.954   6.000  0.2387  0.3165 -0.1811
 3228SOL    HW1 9862   7.355   1.895   5.952  0.4820  0.9986 -0.7164
 3228SOL    HW2 9863   7.204   1.905   6.014  0.8488 -0.5925  0.5079
 3229SOL     OW 9864   4.839   8.766   0.169 -0.2564  0.0528 -0.8612
 3229SOL    HW1 9865   4.761   8.826   0.188 -1.4082 -1.4108 -0.7718
 3229SOL    HW2 9866   4.863   8.772   0.072 -2.0603 -1.2361 -1.4311
 3230SOL     OW 9867   6.356   5.562   7.477  0.6179  0.1308  0.3011
 3230SOL    HW1 9868   6.376   5.578   7.574 -1.3280 -0.6219  0.8804
 3230SOL    HW2 9869   6.272   5.509   7.469  1.8888 -1.7410 -1.7637
 3231SOL     OW 9870   4.149   5.829   8.232 -0.1498 -0.0838 -0.2154
 3231SOL    HW1 9871   4.169   5.849   8.328  1.2925 -2.1074 -0.0260
 3231SOL    HW2 9872   4.115   5.911   8.188  0.8441  1.3972  1.5929
 3232SOL     OW 9873   5.771   3.314   3.419  0.0763 -0.3730  0.3758
 3232SOL    HW1 9874   5.740   3.379   3.349 -1.1566 -1.6531 -0.3469
 3232SOL    HW2 9875   5.842   3.255   3.380 -2.2218 -2.6275 -0.7082
 3233SOL     OW 9876   4.746   0.929   5.769  0.0325 -0.4941  0.0858
 3233SOL    HW1 9877   4.804   0.955   5.692 -0.0423 -0.1986  0.1275
 3233SOL    HW2 9878   4.652   0.959   5.752 -0.0389 -0.6695  0.1694
 3234SOL     OW 9879   7.022   4.233   8.302  0.3440 -0.2875  0.1062
 3234SOL    HW1 9880   6.939   4.287   8.317  1.0780  0.9897 -0.2465
 3234SOL    HW2 9881   7.046   4.184   8.385 -0.3035 -0.0084  0.4646
 3235SOL     OW 9882   8.831   3.857   4.561  0.2007 -0.3253 -0.0460
 3235SOL    HW1 9883   8.771   3.796   4.509  1.3956 -1.9049  0.3641
 3235SOL    HW2 9884   8.864   3.930   4.501  1.4480 -2.0220 -1.5314
 3236SOL     OW 9885   6.448   1.432   5.600 -0.4071  0.0721 -0.2331
 3236SOL    HW1 9886   6.384   1.386   5.539 -0.9396 -0.6493  0.8224
 3236SOL    HW2 9887   6.401   1.508   5.646 -0.2557  0.0943 -0.1149
 3237SOL     OW 9888   5.924   6.914   7.240 -0.1386  0.2021 -0.0787
 3237SOL    HW1 9889   5.891   7.008   7.241 -0.5106  0.0711  0.6033
 3237SOL    HW2 9890   5.974   6.895   7.324  2.1019  0.5225 -1.2599
 3238SOL     OW 9891   5.509   4.214   1.678  0.0043 -0.3298 -0.1016
 3238SOL    HW1 9892   5.505   4.273   1.758  0.8604  2.7561 -2.1357
 3238SOL    HW2 9893   5.433   4.236   1.617  2.4086  1.6290 -2.6601
 3239SOL     OW 9894   2.477   6.209   3.810  0.1385  0.1388  0.3131
 3239SOL    HW1 9895   2.478   6.160   3.896  0.4729  0.2883  0.3959
 3239SOL    HW2 9896   2.383   6.220   3.778  0.0708 -0.6251  0.2506
 3240SOL     OW 9897   3.771   2.118   7.400 -0.1155 -0.2126  0.4907
 3240SOL    HW1 9898   3.859   2.122   7.448  1.0810 -0.9921 -1.4878
 3240SOL    HW2 9899   3.699   2.090   7.463  1.3187 -0.9425  1.8513
 3241SOL     OW 9900   8.034   7.761   6.945 -0.2773  0.0354 -0.1982
 3241SOL    HW1 9901   8.111   7.757   7.009 -0.1438 -1.2927 -0.4032
 3241SOL    HW2 9902   8.070   7.762   6.851 -0.4804 -1.3594 -0.3197
 3242SOL     OW 9903   8.733   7.835   5.428  0.3844  0.7292  0.0161
 3242SOL    HW1 9904   8.689   7.870   5.510 -2.9356  1.7677 -2.0100
 3242SOL    HW2 9905   8.666   7.787   5.372  2.8508 -1.2207 -1.4851
 3243SOL     OW 9906   7.981   1.746   8.262 -0.6017  0.3188 -0.4752
 3243SOL    HW1 9907   7.935   1.688   8.329 -0.6822  0.0403 -0.7709
 3243SOL    HW2 9908   8.070   1.706   8.238  0.4482  1.5564  1.1369
 3244SOL     OW 9909   4.438   3.860   1.906  0.1318  0.2326 -0.1452
 3244SOL    HW1 9910   4.381   3.841   1.826  1.0032 -0.9883 -0.5122
 3244SOL    HW2 9911   4.532   3.878   1.875  0.9262 -2.1799  0.6804
 3245SOL     OW 9912   1.725   2.866   3.369 -0.1095  0.5555  0.3746
 3245SOL    HW1 9913   1.728   2.786   3.308 -1.1097  0.1424  0.8498
 3245SOL    HW2 9914   1.662   2.934   3.331 -1.3602 -0.0357  1.3081
 3246SOL     OW 9915   7.015   8.300   4.668 -0.6196  0.2281  0.1846
 3246SOL    HW1 9916   7.096   8.327   4.721 -1.4166  0.1229  1.5100
 3246SOL    HW2 9917   6.932   8.325   4.718 -1.4231  0.3337 -1.1494
 3247SOL     OW 9918   6.345   1.334   4.723 -0.2079  0.4642 -0.5284
 3247SOL    HW1 9919   6.348   1.279   4.807  1.2653 -1.4177 -1.7219
 3247SOL    HW2 9920   6.255   1.328   4.682 -0.4846  0.1250  0.1207
 3248SOL     OW 9921   4.856   3.032   4.643  0.9266 -0.0486  0.2664
 3248SOL    HW1 9922   4.768   3.003   4.680  0.2365  0.0607 -1.2200
 3248SOL    HW2 9923   4.868   3.130   4.660  1.1038 -0.2055  1.0980
 3249SOL     OW 9924   1.584   7.780   2.430 -0.0563 -0.4554 -0.0258
 3249SOL    HW1 9925   1.645   7.744   2.501 -1.4718 -0.4181  1.2661
 3249SOL    HW2 9926   1.621   7.866   2.395  0.0178  0.2541  1.6811
 3250SOL     OW 9927   5.594   7.058   2.842  0.2128  0.1717  0.3437
 3250SOL    HW1 9928   5.614   7.000   2.921  1.1950 -1.9848 -1.3968
 3250SOL    HW2 9929   5.659   7.134   2.839 -0.8423  1.2630  2.4315
 3251SOL     OW 9930   7.652   3.031   3.357  0.2824 -0.6970  0.3607
 3251SOL    HW1 9931   7.602   2.944   3.358 -0.0399 -0.5185 -0.2925
 3251SOL    HW2 9932   7.689   3.048   3.266 -0.1860  0.1498  0.3164
 3252SOL     OW 9933   1.411   6.201   7.983  0.4924  0.0059  0.1044
 3252SOL    HW1 9934   1.432   6.131   7.914  0.4660  0.1262 -0.0257
 3252SOL    HW2 9935   1.361   6.159   8.059  2.9372 -0.7501  1.4096
 3253SOL     OW 9936   5.649   5.690   0.088 -0.2178 -0.0788  0.0861
 3253SOL    HW1 9937   5.574   5.670   0.151 -1.2719  0.5243 -0.9357
 3253SOL    HW2 9938   5.612   5.725   0.002  1.3110  3.2389  0.6004
 3254SOL     OW 9939   2.698   7.010   1.787  0.0639  0.0203 -0.2884
 3254SOL    HW1 9940   2.751   6.949   1.846 -0.3766  0.5171  0.6320
 3254SOL    HW2 9941   2.717   7.105   1.812 -0.2530  0.2369 -0.8502
 3255SOL     OW 9942   7.587   6.629   5.171 -0.1848  0.3174  0.0337
 3255SOL    HW1 9943   7.490   6.641   5.193 -0.1164 -1.7532  1.7962
 3255SOL    HW2 9944   7.610   6.532   5.175  2.6490  0.9651  2.8282
 3256SOL     OW 9945   0.000   1.954   5.951 -0.4080  0.0319 -0.0142
 3256SOL    HW1 9946   0.090   1.970   5.993 -0.2712 -0.5063 -0.0826
 3256SOL    HW2 9947   0.013   1.920   5.858 -0.5484 -2.9612  0.9382
 3257SOL     OW 9948   5.092   7.089   6.687 -0.1323  0.2095 -0.8920
 3257SOL    HW1 9949   5.159   7.018   6.665  0.5578  1.2081 -2.1349
 3257SOL    HW2 9950   5.044   7.116   6.604 -1.5640  0.0490 -0.1430
 3258SOL     OW 9951   3.397   4.071   2.545 -0.3822 -0.4717  0.5996
 3258SOL    HW1 9952   3.376   3.974   2.551  0.6348 -0.8000 -0.5993
 3258SOL    HW2 9953   3.492   4.086   2.575 -0.1396 -0.0516 -0.3216
 3259SOL     OW 9954   6.851   6.909   0.567 -0.2229  0.1242  0.3467
 3259SOL    HW1 9955   6.752   6.906   0.568 -0.2078 -0.7840 -0.0723
 3259SOL    HW2 9956   6.884   6.896   0.473  0.3036 -0.0637  0.5533
 3260SOL     OW 9957   6.668   1.333   3.847  0.2304  0.5214  0.1729
 3260SOL    HW1 9958   6.682   1.382   3.761  0.6031  0.7516  0.3623
 3260SOL    HW2 9959   6.741   1.357   3.911  0.7232 -0.6778  0.0930
 3261SOL     OW 9960   1.217   8.094   4.654  0.4581  0.0352 -0.1103
 3261SOL    HW1 9961   1.245   8.039   4.575 -1.3710 -0.6949 -0.3182
 3261SOL    HW2 9962   1.160   8.038   4.714 -0.8664  1.4774  0.0529
 3262SOL     OW 9963   0.631   0.736   2.477 -0.4437  0.1348 -0.6762
 3262SOL    HW1 9964   0.651   0.640   2.458  0.9400  0.5710 -1.6741
 3262SOL    HW2 9965   0.601   0.781   2.393  2.1987  1.2906 -1.1037
 3263SOL     OW 9966   1.272   2.096   5.241  0.0187  0.3489 -0.4543
 3263SOL    HW1 9967   1.335   2.038   5.189  0.2715  0.3741 -0.1777
 3263SOL    HW2 9968   1.293   2.192   5.225 -0.2393  0.3651 -0.7141
 3264SOL     OW 9969   6.795   2.072   5.169  0.0134  0.1632 -0.5564
 3264SOL    HW1 9970   6.845   1.986   5.161 -0.2407 -0.1927  1.1810
 3264SOL    HW2 9971   6.712   2.068   5.114 -0.2167 -0.8881 -0.1510
 3265SOL     OW 9972   2.861   6.683   6.268 -0.4818  0.0263  0.4688
 3265SOL    HW1 9973   2.884   6.588   6.291 -0.3267  0.2856  1.4541
 3265SOL    HW2 9974   2.915   6.713   6.190 -0.6417 -0.7455  0.0506
 3266SOL     OW 9975   7.606   3.296   1.490 -0.2805 -0.5088 -0.5645
 3266SOL    HW1 9976   7.621   3.228   1.419 -1.6473 -0.3471 -1.0414
 3266SOL    HW2 9977   7.652   3.267   1.574  1.5166 -0.6051 -1.5327
 3267SOL     OW 9978   7.145   4.112   7.618  0.2169  0.5216  0.0484
 3267SOL    HW1 9979   7.065   4.168   7.595 -0.2560  0.6019  1.7052
 3267SOL    HW2 9980   7.165   4.049   7.543 -2.6804 -0.9050  0.3261
 3268SOL     OW 9981   0.886   8.239   3.384 -0.0234  0.4363  0.3179
 3268SOL    HW1 9982   0.882   8.332   3.347 -0.7820 -0.2142 -1.3478
 3268SOL    HW2 9983   0.795   8.212   3.415 -0.0268 -0.1288 -0.1839
 3269SOL     OW 9984   0.698   2.574   1.575 -0.2884 -0.1967 -0.6867
 3269SOL    HW1 9985   0.619   2.535   1.622  0.0384 -0.9655 -0.7640
 3269SOL    HW2 9986   0.782   2.541   1.618  0.0071 -0.3576 -1.3665
 3270SOL     OW 9987   2.649   6.895   7.023 -0.5890 -0.1926  0.5801
 3270SOL    HW1 9988   2.583   6.905   6.949 -1.1209 -0.1662  1.0546
 3270SOL    HW2 9989   2.651   6.800   7.054 -0.3148 -0.2189  0.4844
 3271SOL     OW 9990   4.637   3.274   5.174 -0.3781  0.5443 -0.5105
 3271SOL    HW1 9991   4.628   3.239   5.267  0.5954  0.8122 -0.3062
 3271SOL    HW2 9992   4.709   3.344   5.171 -0.5725  0.7185 -1.4101
 3272SOL     OW 9993   3.041   3.088   6.897  0.4077  0.0191  0.0868
 3272SOL    HW1 9994   2.999   3.100   6.987  1.9705  1.2459  0.7143
 3272SOL    HW2 9995   2.970   3.075   6.828 -0.8264 -0.9332  1.4857
 3273SOL     OW 9996   1.626   1.579   6.448 -0.6521 -0.1743 -0.8107
 3273SOL    HW1 9997   1.552   1.525   6.409 -1.6719 -2.0057  3.1281
 3273SOL    HW2 9998   1.598   1.675   6.453 -1.5721 -0.3653 -1.9064
 3274SOL     OW 9999   4.898   1.849   1.322  0.8724  0.2349 -0.0874
 3274SOL    HW110000   4.981   1.797   1.303 -0.1941 -1.3808 -0.5180
 3274SOL    HW210001   4.895   1.930   1.263  2.5715  0.8548  0.6037
 3275SOL     OW10002   7.221   7.511   8.331 -0.1300  0.2099 -0.3103
 3275SOL    HW110003   7.218   7.609   8.348 -0.9501  0.5209 -2.0802
 3275SOL    HW210004   7.223   7.462   8.419  0.6364  1.7918  0.5889
 3276SOL     OW10005   4.826   7.188   4.306 -0.9356  0.4736 -0.0138
 3276SOL    HW110006   4.870   7.250   4.241  0.2372 -0.7165 -0.4143
 3276SOL    HW210007   4.782   7.113   4.256  2.2167 -1.9329  0.4844
 3277SOL     OW10008   5.882   2.169   0.151  0.3760  0.2168  0.1262
 3277SOL    HW110009   5.797   2.129   0.186  0.6331  0.7671  1.4411
 3277SOL    HW210010   5.865   2.211   0.062 -0.2914 -1.2672 -0.4777
 3278SOL     OW10011   0.849   5.950   6.460  0.6188 -0.1487  0.1102
 3278SOL    HW110012   0.892   5.990   6.379  0.1774 -0.3000 -0.2005
 3278SOL    HW210013   0.794   6.020   6.506 -0.4011 -0.4677 -0.6046
 3279SOL     OW10014   4.214   4.400   6.721  0.0971 -0.2362  0.1944
 3279SOL    HW110015   4.209   4.332   6.649  2.5154 -0.2268 -0.0584
 3279SOL    HW210016   4.265   4.363   6.799 -0.1015  0.6984  0.7924
 3280SOL     OW10017   7.994   8.282   7.259 -0.7387 -0.3218  0.0443
 3280SOL    HW110018   7.939   8.306   7.179  0.1926  0.9371 -0.2481
 3280SOL    HW210019   8.059   8.211   7.234  0.7822  1.3075 -0.8785
 3281SOL     OW10020   0.286   4.968   8.620  0.5424  0.0013  0.6414
 3281SOL    HW110021   0.324   4.876   8.616  0.3578 -0.4488  4.7655
 3281SOL    HW210022   0.187   4.962   8.636  0.1462  1.0305 -1.1291
 3282SOL     OW10023   6.636   0.244   0.067  0.2948 -0.6311  0.2087
 3282SOL    HW110024   6.696   0.177   0.023  0.6032  1.6616 -3.3092
 3282SOL    HW210025   6.541   0.221   0.047  0.4329  0.4497 -2.0454
 3283SOL     OW10026   6.549   0.817   1.488 -0.2444 -0.2112 -0.1090
 3283SOL    HW110027   6.509   0.747   1.429  1.1808 -0.7777 -0.4559
 3283SOL    HW210028   6.644   0.793   1.507 -0.3130  0.6116  1.4155
 3284SOL     OW10029   3.231   2.658   0.148 -0.0124 -0.5935  0.1496
 3284SOL    HW110030   3.269   2.577   0.103  1.4508 -0.2053  0.6469
 3284SOL    HW210031   3.161   2.698   0.089  2.3506  0.3437 -2.2231
 3285SOL     OW10032   7.299   1.615   7.519  0.3830  0.0852  0.0394
 3285SOL    HW110033   7.247   1.539   7.481 -0.9495  0.7595  0.4539
 3285SOL    HW210034   7.246   1.700   7.510  1.9685  1.0490 -0.7304
 3286SOL     OW10035   5.056   1.982   4.224  0.0962  0.3046 -0.0218
 3286SOL    HW110036   5.156   1.974   4.229  0.1495  0.3316 -0.8847
 3286SOL    HW210037   5.029   2.005   4.131 -0.8080 -1.2015 -0.1649
 3287SOL     OW10038   1.112   8.062   1.012  0.6605  0.2978 -0.1845
 3287SOL    HW110039   1.169   8.128   1.060  1.6066 -1.3359  1.0757
 3287SOL    HW210040   1.016   8.079   1.033  0.8890  1.2877  0.0890
 3288SOL     OW10041   8.771   4.093   2.807  0.6502 -0.0040  0.3280
 3288SOL    HW110042   8.737   4.090   2.901  0.5412  1.3128  0.3449
 3288SOL    HW210043   8.709   4.146   2.750  0.2841 -1.4876 -0.6968
 3289SOL     OW10044   8.759   2.500   2.972  0.1093  0.3249 -0.5320
 3289SOL    HW110045   8.716   2.584   2.940 -0.6464  0.5993  1.0571
 3289SOL    HW210046   8.826   2.469   2.906 -0.8368  1.2219 -1.9650
 3290SOL     OW10047   4.097   8.555   4.845 -0.1646  0.2004  0.2059
 3290SOL    HW110048   4.017   8.608   4.874  0.0879  1.0867 -0.6842
 3290SOL    HW210049   4.092   8.538   4.746  0.2027 -0.6960  0.3290
 3291SOL     OW10050   5.903   0.834   3.651 -0.1530  0.4396  0.1758
 3291SOL    HW110051   5.964   0.893   3.599  0.4298 -0.5652 -0.3097
 3291SOL    HW210052   5.945   0.811   3.738 -0.3046  0.6040  0.2922
 3292SOL     OW10053   8.329   3.795   5.897  0.2287  1.0298  0.5265
 3292SOL    HW110054   8.277   3.823   5.816 -2.8269 -0.5479  1.7621
 3292SOL    HW210055   8.307   3.855   5.974  0.0663  0.2104  1.1314
 3293SOL     OW10056   0.962   6.638   3.925 -0.2684  0.3494 -0.5203
 3293SOL    HW110057   1.044   6.599   3.966 -1.0237 -1.1656 -0.3800
 3293SOL    HW210058   0.951   6.603   3.832 -3.0239 -3.1353  0.8846
 3294SOL     OW10059   2.151   0.260   0.414 -0.8767  0.8138 -0.0744
 3294SOL    HW110060   2.189   0.352   0.423  3.5513 -0.9980  2.5649
 3294SOL    HW210061   2.189   0.216   0.332 -0.1981  0.2200  0.5500
 3295SOL     OW10062   5.815   2.060   3.368  0.0575 -0.0281 -0.3602
 3295SOL    HW110063   5.827   2.149   3.325  2.1798 -0.3463 -0.5511
 3295SOL    HW210064   5.817   2.070   3.468  0.3453  0.1495 -0.3817
 3296SOL     OW10065   7.889   3.410   0.627 -0.2572  0.0683  0.4643
 3296SOL    HW110066   7.797   3.376   0.643 -0.3764  0.0899 -0.1492
 3296SOL    HW210067   7.916   3.469   0.703 -1.2504  1.1041  0.0433
 3297SOL     OW10068   1.360   7.434   1.826  0.4565  0.7142 -0.0538
 3297SOL    HW110069   1.371   7.377   1.744  0.0723  1.3079 -0.5242
 3297SOL    HW210070   1.312   7.382   1.896 -2.0102  1.1700 -1.2910
 3298SOL     OW10071   1.274   1.278   7.978 -0.0662 -0.5596 -0.1061
 3298SOL    HW110072   1.252   1.242   8.068  1.6700 -3.2048 -0.6159
 3298SOL    HW210073   1.353   1.229   7.941 -1.9609 -1.0921 -3.9461
 3299SOL     OW10074   1.445   8.075   0.473 -0.1894 -0.5461  0.0004
 3299SOL    HW110075   1.533   8.096   0.431  0.1137 -2.5142 -0.4234
 3299SOL    HW210076   1.415   8.153   0.529  1.5956  0.3207 -0.1950
 3300SOL     OW10077   7.561   2.424   4.849 -0.1206  0.4395  0.8848
 3300SOL    HW110078   7.632   2.495   4.855 -0.5043  0.9282 -0.1908
 3300SOL    HW210079   7.582   2.351   4.914  0.7214  1.1504  1.4335
 3301SOL     OW10080   8.641   1.524   0.556  0.3732 -0.4799  0.0675
 3301SOL    HW110081   8.665   1.546   0.461 -0.3928 -1.9514 -0.4928
 3301SOL    HW210082   8.617   1.428   0.563 -0.6620 -0.1439  1.5648
 3302SOL     OW10083   1.695   6.790   3.700  0.0546 -0.5863 -0.1292
 3302SOL    HW110084   1.658   6.789   3.607  0.2035 -0.2356 -0.1962
 3302SOL    HW210085   1.768   6.858   3.705 -1.5174  1.1005  0.8479
 3303SOL     OW10086   6.912   2.405   8.055  0.3378  0.2749 -0.0517
 3303SOL    HW110087   6.892   2.310   8.081 -1.0273  0.7297  0.6426
 3303SOL    HW210088   6.901   2.415   7.956 -0.1563 -0.1513 -0.0479
 3304SOL     OW10089   5.661   0.227   5.089  0.2403  0.7565 -0.1496
 3304SOL    HW110090   5.710   0.202   5.173  0.7654 -0.7789 -0.8820
 3304SOL    HW210091   5.651   0.146   5.031 -0.0882  1.7944 -1.5873
 3305SOL     OW10092   7.117   8.093   7.886  0.4395 -0.4972  0.6546
 3305SOL    HW110093   7.064   8.178   7.879 -0.3720 -0.9712  0.9032
 3305SOL    HW210094   7.069   8.020   7.837  0.4028 -1.1521  1.6457
 3306SOL     OW10095   3.803   1.333   7.566 -0.1245  0.1117  0.6405
 3306SOL    HW110096   3.710   1.297   7.565 -0.2190  0.1104 -2.8050
 3306SOL    HW210097   3.801   1.432   7.548  0.5226  0.3341  1.6954
 3307SOL     OW10098   0.427   5.388   1.089 -0.3135 -0.1532 -0.4000
 3307SOL    HW110099   0.477   5.470   1.061 -0.9640  0.2553 -0.3870
 3307SOL    HW210100   0.337   5.389   1.046  0.4552 -1.9956 -2.2507
 3308SOL     OW10101   7.801   3.492   8.674 -0.0357 -0.3703 -0.0964
 3308SOL    HW110102   7.775   3.572   8.727  1.8446  0.6836 -0.6763
 3308SOL    HW210103   7.803   3.515   8.577 -1.0265 -1.5854 -0.4316
 3309SOL     OW10104   8.727   8.086   6.895  0.1345  0.1807 -0.0846
 3309SOL    HW110105   8.765   8.002   6.856  1.1174  0.2602  0.6929
 3309SOL    HW210106   8.629   8.090   6.874 -0.1426 -1.6225  0.6612
 3310SOL     OW10107   2.071   7.168   3.368  0.3247  0.3367 -0.6833
 3310SOL    HW110108   1.994   7.115   3.403  0.5113 -1.3694 -2.6258
 3310SOL    HW210109   2.041   7.223   3.290  1.1623 -0.9932 -2.0048
 3311SOL     OW10110   0.496   8.405   5.811 -0.1029 -0.0395  0.6965
 3311SOL    HW110111   0.502   8.309   5.785 -0.1696 -0.4335  2.0801
 3311SOL    HW210112   0.403   8.438   5.797 -0.4201 -0.5689  1.4925
 3312SOL     OW10113   2.342   4.791   3.824 -0.3163  0.4503 -0.0471
 3312SOL    HW110114   2.269   4.791   3.756 -0.2650 -0.2425 -0.1007
 3312SOL    HW210115   2.429   4.811   3.779 -0.3300  0.3264 -0.1274
 3313SOL     OW10116   3.241   7.049   1.254  0.2307 -0.6063  0.0108
 3313SOL    HW110117   3.154   7.083   1.219  0.2408  0.6310  1.1259
 3313SOL    HW210118   3.292   7.006   1.179 -1.3742 -1.4924 -0.6248
 3314SOL     OW10119   2.079   7.309   3.762  0.1476  0.2098  0.1669
 3314SOL    HW110120   2.144   7.374   3.799  0.4524 -1.5356  2.9811
 3314SOL    HW210121   1.989   7.351   3.756  0.6228  1.3055  0.4805
 3315SOL     OW10122   6.784   8.100   6.681  0.9149 -0.2640 -0.5858
 3315SOL    HW110123   6.844   8.175   6.656  0.0019  0.2042 -1.4549
 3315SOL    HW210124   6.702   8.102   6.624  1.2211 -2.4106 -1.1812
 3316SOL     OW10125   5.999   1.589   7.543 -0.7577  0.2103 -0.0329
 3316SOL    HW110126   5.967   1.499   7.572 -2.1657  0.5270 -0.4904
 3316SOL    HW210127   6.028   1.585   7.447 -2.1958  0.5129 -0.5149
 3317SOL     OW10128   6.312   7.088   2.492 -0.4166  0.0341 -0.2420
 3317SOL    HW110129   6.318   7.175   2.443 -2.0380  0.3355  0.0161
 3317SOL    HW210130   6.354   7.015   2.437  1.7612  1.0816 -0.0773
 3318SOL     OW10131   4.444   5.153   8.797 -0.1474  0.4734  0.3311
 3318SOL    HW110132   4.497   5.084   8.846 -1.5016 -0.0340  1.1315
 3318SOL    HW210133   4.425   5.230   8.857 -1.3308  0.1023  0.4657
 3319SOL     OW10134   5.180   6.708   0.944 -0.3329 -0.0725 -0.3337
 3319SOL    HW110135   5.131   6.641   1.000 -1.4014  0.4262 -0.6363
 3319SOL    HW210136   5.134   6.797   0.950  0.2436  0.2875 -1.0349
 3320SOL     OW10137   6.790   6.925   2.979 -0.2673  0.1841  0.4487
 3320SOL    HW110138   6.691   6.914   2.975 -0.2322 -0.3499  0.9288
 3320SOL    HW210139   6.813   7.016   3.013 -0.5830  1.4305 -2.3978
 3321SOL     OW10140   3.305   0.722   4.566  0.8041  0.3790  0.0972
 3321SOL    HW110141   3.331   0.810   4.526 -1.1989  0.4400 -1.2400
 3321SOL    HW210142   3.278   0.659   4.493  0.7709 -0.8414  1.1323
 3322SOL     OW10143   5.692   8.047   1.465 -0.3016  0.1733 -0.2932
 3322SOL    HW110144   5.618   8.103   1.502 -0.4858 -0.0807 -0.2722
 3322SOL    HW210145   5.750   8.103   1.406 -0.0228  0.5683  0.3504
 3323SOL     OW10146   8.450   6.799   5.917  0.0527  0.3992  0.0909
 3323SOL    HW110147   8.518   6.872   5.929  0.2122  0.1665  0.6852
 3323SOL    HW210148   8.495   6.710   5.930  0.4787 -0.0024 -3.2739
 3324SOL     OW10149   7.380   6.400   7.201 -1.0578 -0.1973 -0.0907
 3324SOL    HW110150   7.416   6.405   7.294 -0.9121 -1.9433 -0.0327
 3324SOL    HW210151   7.404   6.484   7.152  1.5727 -0.5255  0.4994
 3325SOL     OW10152   0.797   3.220   0.873 -0.4791  0.2110 -0.1503
 3325SOL    HW110153   0.866   3.160   0.914 -0.8878 -0.1308  0.0476
 3325SOL    HW210154   0.801   3.310   0.915 -0.5542  0.0138  0.2820
 3326SOL     OW10155   1.613   1.471   1.255 -0.2261  0.2255 -0.7083
 3326SOL    HW110156   1.646   1.498   1.345 -0.7946 -0.7835 -0.1821
 3326SOL    HW210157   1.635   1.543   1.189  0.1013  1.0290  0.2468
 3327SOL     OW10158   2.960   1.037   6.231  0.5178 -0.0846 -0.7485
 3327SOL    HW110159   3.029   1.041   6.303  0.7127  0.7057 -0.9708
 3327SOL    HW210160   2.988   0.970   6.162  0.0759 -1.2315  0.1446
 3328SOL     OW10161   7.854   2.785   2.147 -0.1200 -0.0929 -0.3372
 3328SOL    HW110162   7.920   2.855   2.119 -0.8505  0.3128 -1.0909
 3328SOL    HW210163   7.876   2.753   2.239  1.1104  0.0539 -0.5615
 3329SOL     OW10164   6.285   2.674   6.026 -0.2696  0.0782 -0.1903
 3329SOL    HW110165   6.353   2.603   6.012  0.3662  0.6891 -0.2939
 3329SOL    HW210166   6.229   2.653   6.106  0.4838 -0.1037  0.2940
 3330SOL     OW10167   1.033   2.603   0.660 -0.7537 -0.0768 -0.0658
 3330SOL    HW110168   0.977   2.614   0.578 -0.6492 -3.1055 -0.6502
 3330SOL    HW210169   0.974   2.601   0.741 -0.8573  2.8967  0.0480
 3331SOL     OW10170   8.248   4.517   4.106  0.1493 -0.3448  0.5287
 3331SOL    HW110171   8.327   4.542   4.163  0.3915  0.1969 -0.0375
 3331SOL    HW210172   8.173   4.487   4.164  0.7468 -0.7909  1.0831
 3332SOL     OW10173   2.608   1.957   6.411 -0.1527 -0.0294  0.2937
 3332SOL    HW110174   2.601   1.861   6.439  0.1128 -0.5714 -1.3727
 3332SOL    HW210175   2.523   1.985   6.366  0.7010 -0.3170 -1.5722
 3333SOL     OW10176   5.621   8.234   5.054  0.0951  0.3350  0.8475
 3333SOL    HW110177   5.553   8.197   4.990  0.1262 -1.2940  1.6918
 3333SOL    HW210178   5.634   8.169   5.129  4.9490 -1.0672 -0.8688
 3334SOL     OW10179   1.353   4.263   8.249 -0.2592  0.3437  0.0971
 3334SOL    HW110180   1.387   4.294   8.338 -0.2256  0.4550  0.0463
 3334SOL    HW210181   1.260   4.299   8.235 -0.5807 -0.3410  0.4355
 3335SOL     OW10182   8.774   7.934   4.342  0.3528  0.1156 -0.8845
 3335SOL    HW110183   8.751   8.030   4.359  1.1942  0.0276  0.9985
 3335SOL    HW210184   8.738   7.907   4.253 -2.0878  1.4694 -0.4286
 3336SOL     OW10185   4.495   2.426   0.028  0.2068 -0.4635  0.0482
 3336SOL    HW110186   4.451   2.478   0.102 -2.0086 -1.5032 -0.4861
 3336SOL    HW210187   4.564   2.365   0.068 -1.6121 -1.7109  1.4232
 3337SOL     OW10188   4.881   5.308   1.701  0.3337  0.1079  0.0791
 3337SOL    HW110189   4.872   5.407   1.706 -0.6307 -0.0129  1.2765
 3337SOL    HW210190   4.817   5.265   1.766 -0.3927 -1.3520 -1.5219
 3338SOL     OW10191   7.437   6.972   6.245  0.6246  0.4695 -0.0629
 3338SOL    HW110192   7.526   6.937   6.215  0.8986  2.0367 -1.2335
 3338SOL    HW210193   7.431   6.967   6.345  2.1403  0.5854  0.0590
 3339SOL     OW10194   0.255   3.681   6.390  0.3503 -0.5505  0.2942
 3339SOL    HW110195   0.252   3.610   6.320  0.8739 -1.4504  1.1587
 3339SOL    HW210196   0.317   3.754   6.361 -0.2679 -0.3749 -0.6427
 3340SOL     OW10197   3.791   4.135   1.279 -0.1533 -0.2372 -0.2148
 3340SOL    HW110198   3.858   4.185   1.225  0.5941 -0.3409  0.5987
 3340SOL    HW210199   3.718   4.197   1.307 -0.5952 -0.1941 -1.3684
 3341SOL     OW10200   6.219   4.945   8.510 -0.9015  0.0350 -0.0641
 3341SOL    HW110201   6.126   4.925   8.482 -0.6689  0.5745 -1.2860
 3341SOL    HW210202   6.276   4.960   8.429  0.1536  0.1029  0.6700
 3342SOL     OW10203   3.787   1.531   7.145 -0.3375 -0.0159  0.2807
 3342SOL    HW110204   3.820   1.439   7.163  0.2460  0.2060  0.3798
 3342SOL    HW210205   3.687   1.532   7.146 -0.3469 -0.6667  0.1574
 3343SOL     OW10206   5.376   6.298   7.478  0.4907 -0.1290  0.5512
 3343SOL    HW110207   5.277   6.314   7.486  0.8267  1.8966  1.3310
 3343SOL    HW210208   5.425   6.370   7.527  2.3803 -0.8179 -0.2428
 3344SOL     OW10209   0.586   4.133   2.729  0.6388 -0.3751  0.3388
 3344SOL    HW110210   0.656   4.172   2.670 -0.6487 -0.2159 -1.1524
 3344SOL    HW210211   0.504   4.191   2.726 -0.9683 -2.5673 -1.1259
 3345SOL     OW10212   3.615   4.139   2.722 -0.0510  0.3468  0.8514
 3345SOL    HW110213   3.614   4.093   2.811  0.2287 -0.3385  0.5060
 3345SOL    HW210214   3.704   4.127   2.679  0.4908  2.2991  1.2896
 3346SOL     OW10215   5.113   0.484   6.654 -0.6183 -0.0467 -0.4644
 3346SOL    HW110216   5.132   0.518   6.562  1.0248  0.5328  0.0411
 3346SOL    HW210217   5.166   0.400   6.670  0.8898  1.0538  0.6580
 3347SOL     OW10218   5.964   1.206   5.834  0.4651 -0.3629  0.4043
 3347SOL    HW110219   5.881   1.250   5.866  0.7329  0.9378 -0.5780
 3347SOL    HW210220   5.997   1.253   5.751  0.7813 -2.4258 -0.7033
 3348SOL     OW10221   7.123   5.446   6.154  0.8554 -0.0807 -0.0069
 3348SOL    HW110222   7.089   5.380   6.221 -0.7630  0.8929  0.1718
 3348SOL    HW210223   7.210   5.484   6.186  0.2628  0.1349  1.3843
 3349SOL     OW10224   4.912   5.567   8.479  0.0157 -0.4510 -0.1677
 3349SOL    HW110225   4.830   5.549   8.534  0.7116  0.9009  1.3921
 3349SOL    HW210226   4.919   5.665   8.462  1.9808 -0.3836  0.8472
 3350SOL     OW10227   2.384   3.807   2.137  0.0190  0.3948  0.1606
 3350SOL    HW110228   2.396   3.898   2.098 -0.0634 -0.6178 -2.3616
 3350SOL    HW210229   2.299   3.805   2.189 -2.3324  0.7045 -3.3335
 3351SOL     OW10230   2.393   6.502   8.255 -0.2581 -0.5056  0.3952
 3351SOL    HW110231   2.412   6.462   8.345  0.3428  0.4239  0.6964
 3351SOL    HW210232   2.427   6.441   8.183 -1.7785 -1.8136  0.7411
 3352SOL     OW10233   6.915   1.645   4.685 -0.1448 -0.3251  0.2722
 3352SOL    HW110234   6.909   1.548   4.709 -2.0344 -0.9366 -2.2187
 3352SOL    HW210235   6.842   1.694   4.732  0.4644 -0.1864  1.0953
 3353SOL     OW10236   3.276   3.512   5.659  0.3525 -0.0728  0.1417
 3353SOL    HW110237   3.255   3.526   5.756  1.1792 -0.3369  0.3696
 3353SOL    HW210238   3.241   3.423   5.630 -1.4802  0.7382 -0.2929
 3354SOL     OW10239   1.125   3.091   1.640 -0.0077 -0.4495 -0.8162
 3354SOL    HW110240   1.147   3.174   1.588  2.4182 -0.6767 -0.2766
 3354SOL    HW210241   1.133   3.011   1.582 -0.6289 -0.4612 -0.8970
 3355SOL     OW10242   2.320   7.237   0.558  0.3344 -0.1231  0.3918
 3355SOL    HW110243   2.412   7.258   0.523  0.8095  0.3024  1.8419
 3355SOL    HW210244   2.328   7.192   0.647 -0.8714 -0.3526  0.3946
 3356SOL     OW10245   3.086   5.398   0.049 -0.4042  0.3591 -0.1129
 3356SOL    HW110246   3.159   5.448   0.003 -0.1741 -0.1066 -0.2674
 3356SOL    HW210247   3.125   5.327   0.107 -0.7289  0.1719 -0.1179
 3357SOL     OW10248   7.524   8.340   1.861  0.5388  0.1231 -0.2120
 3357SOL    HW110249   7.593   8.399   1.820 -0.5400  1.1838 -0.5326
 3357SOL    HW210250   7.438   8.347   1.810  0.0354 -0.7964  0.4720
 3358SOL     OW10251   8.773   6.233   5.284 -0.2405  0.0278  0.4479
 3358SOL    HW110252   8.748   6.170   5.211 -1.0885  0.4722  0.3414
 3358SOL    HW210253   8.820   6.183   5.357  2.4525 -0.1068 -1.2413
 3359SOL     OW10254   4.062   7.236   7.239  0.0050 -0.0876 -0.8160
 3359SOL    HW110255   4.108   7.167   7.296  2.6130  0.7267 -1.8052
 3359SOL    HW210256   4.052   7.201   7.146 -0.8275  0.0127 -0.7736
 3360SOL     OW10257   2.481   6.682   2.434 -0.2175  0.1002 -0.2407
 3360SOL    HW110258   2.415   6.687   2.359 -0.3993 -0.3570 -0.1187
 3360SOL    HW210259   2.556   6.746   2.417  0.4679 -0.9830 -1.5254
 3361SOL     OW10260   1.566   3.232   3.044  0.4516  0.0481 -0.1322
 3361SOL    HW110261   1.485   3.290   3.058  0.5845  0.3887 -0.7318
 3361SOL    HW210262   1.564   3.195   2.951  0.9787  0.0460 -0.1420
 3362SOL     OW10263   6.425   0.186   2.794 -0.8243 -0.2171  0.2913
 3362SOL    HW110264   6.386   0.199   2.703 -0.6857  1.5995  0.4630
 3362SOL    HW210265   6.400   0.263   2.852  0.5281 -0.5108  1.2938
 3363SOL     OW10266   1.951   7.309   3.158 -1.1355 -0.2152 -0.0013
 3363SOL    HW110267   1.895   7.298   3.076 -0.5668  0.0987 -0.4338
 3363SOL    HW210268   2.032   7.363   3.137 -1.1239  0.1128  0.8346
 3364SOL     OW10269   0.662   6.724   8.172 -0.3698  0.3215 -0.4965
 3364SOL    HW110270   0.655   6.749   8.075  0.2119 -0.0422 -0.6361
 3364SOL    HW210271   0.571   6.699   8.207 -0.6099  0.6218 -0.8990
 3365SOL     OW10272   7.335   0.996   1.091 -0.1762  0.0838 -0.1568
 3365SOL    HW110273   7.358   1.093   1.080 -0.2445  0.0764 -0.3648
 3365SOL    HW210274   7.382   0.960   1.171 -0.0938  0.2714 -0.1195
 3366SOL     OW10275   6.750   8.359   1.219  0.1488 -0.0845 -0.1350
 3366SOL    HW110276   6.650   8.360   1.214  0.1253  0.1809  0.3569
 3366SOL    HW210277   6.788   8.347   1.127 -0.3427 -1.0050 -0.2255
 3367SOL     OW10278   2.129   2.721   2.654 -0.0164  0.0839 -0.4081
 3367SOL    HW110279   2.030   2.719   2.663  0.0240 -0.5354 -0.0168
 3367SOL    HW210280   2.171   2.729   2.745  0.3292 -2.0159 -0.3363
 3368SOL     OW10281   7.381   8.074   3.676  0.1072 -0.5058  0.2478
 3368SOL    HW110282   7.389   8.164   3.635 -0.7241 -1.3822 -2.0197
 3368SOL    HW210283   7.307   8.023   3.630  1.3591 -2.7598  0.5722
 3369SOL     OW10284   2.644   7.125   0.604  0.3006  0.6454 -0.6355
 3369SOL    HW110285   2.612   7.217   0.580 -0.7608  0.2915 -0.6388
 3369SOL    HW210286   2.629   7.110   0.702 -1.8579 -0.3816 -1.0580
 3370SOL     OW10287   1.489   1.323   3.523  0.4344  0.1062 -0.2681
 3370SOL    HW110288   1.581   1.329   3.560 -0.1437 -1.5561  1.6126
 3370SOL    HW210289   1.467   1.407   3.473  1.9218  1.7730  1.7289
 3371SOL     OW10290   3.194   7.614   5.538 -0.5428 -0.4052 -0.4065
 3371SOL    HW110291   3.169   7.647   5.447 -1.2297 -1.4609 -0.6181
 3371SOL    HW210292   3.150   7.527   5.555 -0.2339 -0.3348  0.8626
 3372SOL     OW10293   5.217   1.240   2.395  0.3256  0.0289  0.0625
 3372SOL    HW110294   5.257   1.149   2.389 -0.3571 -0.2428 -0.5291
 3372SOL    HW210295   5.138   1.237   2.457  0.1829  0.1667 -0.1119
 3373SOL     OW10296   0.688   7.477   7.975  0.3419 -0.2047  0.3830
 3373SOL    HW110297   0.665   7.381   7.962  2.0589 -0.7383  1.0358
 3373SOL    HW210298   0.604   7.531   7.980 -0.6928 -1.8224  1.2664
 3374SOL     OW10299   0.648   1.836   3.006  0.3135  0.5406 -0.4217
 3374SOL    HW110300   0.557   1.841   2.966  0.6825  2.3461 -1.0881
 3374SOL    HW210301   0.660   1.910   3.071  0.3682 -1.2975  1.8093
 3375SOL     OW10302   2.423   4.166   8.259 -0.8333  0.2618 -0.1465
 3375SOL    HW110303   2.473   4.108   8.194 -1.1550  0.6615 -0.7584
 3375SOL    HW210304   2.464   4.257   8.260  0.4601 -0.2809  1.7340
 3376SOL     OW10305   5.951   7.897   0.526 -0.1504  0.2995  0.4013
 3376SOL    HW110306   5.932   7.860   0.436 -0.9443  0.0690  0.6626
 3376SOL    HW210307   5.867   7.934   0.566 -0.3952 -1.9107  2.1039
 3377SOL     OW10308   2.737   2.914   2.139 -0.3362  0.0279  0.1466
 3377SOL    HW110309   2.767   2.932   2.045  0.0273 -0.1137  0.2344
 3377SOL    HW210310   2.706   3.000   2.181  0.8945  0.3762  0.3875
 3378SOL     OW10311   7.000   6.967   7.275 -0.4231 -0.1907  0.6291
 3378SOL    HW110312   7.075   6.979   7.341  0.1184 -0.1040  0.0134
 3378SOL    HW210313   6.941   6.892   7.304  0.9569 -1.5044  0.1985
 3379SOL     OW10314   3.025   5.225   0.527 -0.1026  0.0549 -0.6699
 3379SOL    HW110315   3.054   5.321   0.523 -0.5239  0.2366  0.4109
 3379SOL    HW210316   3.093   5.169   0.480 -0.5053  0.9965 -2.5112
 3380SOL     OW10317   4.574   5.542   8.207 -0.3976 -0.5086  0.0630
 3380SOL    HW110318   4.560   5.640   8.202 -1.4501 -0.5573  1.6138
 3380SOL    HW210319   4.672   5.522   8.210 -0.1018  0.3392 -2.2636
 3381SOL     OW10320   8.517   0.902   5.770  0.6161  0.4832 -0.1341
 3381SOL    HW110321   8.483   0.996   5.772  0.4546  0.4727 -1.3338
 3381SOL    HW210322   8.509   0.861   5.861 -1.8916  0.7387 -0.1656
 3382SOL     OW10323   3.138   2.938   6.442 -0.5207 -0.5155  0.2173
 3382SOL    HW110324   3.230   2.906   6.462 -0.3361  0.9650  1.9552
 3382SOL    HW210325   3.076   2.913   6.516 -1.5225 -1.3549 -0.8583
 3383SOL     OW10326   6.734   5.142   4.142  0.6830 -0.4599  0.5266
 3383SOL    HW110327   6.700   5.103   4.057 -0.6642  0.9947  0.3575
 3383SOL    HW210328   6.749   5.240   4.130  1.2732 -0.3868  1.7307
 3384SOL     OW10329   6.116   3.659   7.974  0.2109 -0.6190 -0.1360
 3384SOL    HW110330   6.067   3.617   8.051 -0.6278  1.3234  0.4296
 3384SOL    HW210331   6.215   3.651   7.989  0.0637 -1.1152  0.6332
 3385SOL     OW10332   1.290   6.736   1.331 -0.7608  0.0708  0.1644
 3385SOL    HW110333   1.201   6.691   1.318 -0.7888 -0.2004  1.1895
 3385SOL    HW210334   1.302   6.806   1.262 -2.5803  1.3628  1.0724
 3386SOL     OW10335   7.370   4.517   4.085 -0.0781 -0.0877  0.3471
 3386SOL    HW110336   7.277   4.525   4.049  0.2860 -2.3330 -1.2958
 3386SOL    HW210337   7.368   4.470   4.173 -0.5339  0.5672  0.6960
 3387SOL     OW10338   1.915   8.045   3.453  0.8524  0.3219  0.3509
 3387SOL    HW110339   1.862   8.127   3.476  0.9530  0.1761  1.1359
 3387SOL    HW210340   1.952   8.005   3.537  2.8502  0.8438 -0.2340
 3388SOL     OW10341   2.164   2.023   3.420 -0.0742  0.2080 -0.4384
 3388SOL    HW110342   2.111   2.056   3.342  0.4829 -2.6227 -2.1782
 3388SOL    HW210343   2.261   2.045   3.406  0.1193 -0.8840 -0.9507
 3389SOL     OW10344   1.933   5.269   1.219 -0.4170 -0.7651  0.0279
 3389SOL    HW110345   1.883   5.182   1.215 -1.8211 -0.2025  2.8839
 3389SOL    HW210346   1.881   5.335   1.274  1.9429  0.9572  0.3340
 3390SOL     OW10347   5.751   2.480   7.439 -0.0938  0.2010 -0.2061
 3390SOL    HW110348   5.813   2.489   7.361 -1.2392 -0.3165 -1.2097
 3390SOL    HW210349   5.729   2.384   7.453  1.1448  0.1394  1.6349
 3391SOL     OW10350   0.386   1.642   4.563  0.0393  0.1179  0.3192
 3391SOL    HW110351   0.480   1.616   4.544 -0.6864 -2.6700  0.1399
 3391SOL    HW210352   0.367   1.731   4.521  2.0611 -0.0881 -1.1736
 3392SOL     OW10353   6.808   2.282   4.873  0.4014  0.1515  0.7523
 3392SOL    HW110354   6.779   2.222   4.947 -0.4807 -1.8020 -1.0719
 3392SOL    HW210355   6.736   2.348   4.853  0.1057 -0.1737  0.7528
 3393SOL     OW10356   6.548   2.040   6.807  0.3352 -0.4179  0.4988
 3393SOL    HW110357   6.518   1.999   6.721  0.6406 -1.6050  0.9355
 3393SOL    HW210358   6.497   2.125   6.823 -1.2416 -1.2717  0.1878
 3394SOL     OW10359   1.663   4.356   7.332  0.2051 -0.1919 -0.3211
 3394SOL    HW110360   1.708   4.301   7.261  0.3403 -1.0591  0.4068
 3394SOL    HW210361   1.686   4.452   7.320  1.1243 -0.4622 -0.7993
 3395SOL     OW10362   6.019   5.189   5.446 -0.1923  0.5974  0.0560
 3395SOL    HW110363   6.057   5.212   5.357 -1.7280  0.1470 -0.7412
 3395SOL    HW210364   5.966   5.266   5.481 -1.1146  0.1237 -0.2758
 3396SOL     OW10365   3.002   3.912   2.836 -0.3252  0.1543  0.9307
 3396SOL    HW110366   3.080   3.952   2.883 -1.1540  0.6345  1.9441
 3396SOL    HW210367   2.986   3.960   2.750  0.8101 -0.3041  0.4468
 3397SOL     OW10368   2.222   4.573   4.320 -0.5756  0.2037 -0.0155
 3397SOL    HW110369   2.216   4.628   4.403  1.9333 -0.2679  0.5768
 3397SOL    HW210370   2.270   4.488   4.340 -1.5116 -0.7567 -1.6015
 3398SOL     OW10371   7.397   7.750   8.014  0.2468 -0.3403  0.2301
 3398SOL    HW110372   7.318   7.748   7.953  0.4755 -0.7433 -0.0551
 3398SOL    HW210373   7.403   7.841   8.057  0.4333  0.1528 -0.8077
 3399SOL     OW10374   4.833   7.481   8.296 -0.0640  0.4674  0.1276
 3399SOL    HW110375   4.868   7.544   8.366  1.2784  0.5737 -0.6013
 3399SOL    HW210376   4.802   7.397   8.339 -1.2423  1.3429  1.0506
 3400SOL     OW10377   1.490   0.772   0.325  0.1485  0.0759 -0.2806
 3400SOL    HW110378   1.488   0.868   0.355 -0.5695  0.1474 -0.5465
 3400SOL    HW210379   1.495   0.713   0.405 -0.9835  0.2920 -0.0287
 3401SOL     OW10380   0.600   2.293   1.072  0.4378  0.5078 -0.0682
 3401SOL    HW110381   0.698   2.290   1.090  0.3460 -0.4383  0.3217
 3401SOL    HW210382   0.566   2.386   1.090  1.2450  0.8305 -0.1655
 3402SOL     OW10383   1.010   3.146   3.157  0.2592 -0.2924  0.1233
 3402SOL    HW110384   0.948   3.207   3.108  0.2455 -1.4414 -1.3819
 3402SOL    HW210385   0.959   3.100   3.230 -0.0245  0.6023  0.4975
 3403SOL     OW10386   4.616   0.110   0.513 -0.0646  0.1583  0.2345
 3403SOL    HW110387   4.610   0.208   0.532 -0.9093  0.1584  0.0259
 3403SOL    HW210388   4.696   0.072   0.558  1.1778  1.2403 -0.9575
 3404SOL     OW10389   7.987   3.375   6.243  0.2967  0.5574 -0.3960
 3404SOL    HW110390   8.059   3.354   6.309  0.6259  0.7134 -0.7080
 3404SOL    HW210391   7.959   3.471   6.253 -0.6439  0.2157  0.4767
 3405SOL     OW10392   2.953   5.451   5.958 -0.1915  0.0028  0.6638
 3405SOL    HW110393   2.964   5.362   6.002  0.8346  0.6186  1.7431
 3405SOL    HW210394   3.043   5.489   5.937 -0.6433 -0.3650 -2.2995
 3406SOL     OW10395   0.371   5.303   4.952  0.4407  0.1892 -0.1411
 3406SOL    HW110396   0.456   5.275   4.908  0.2542  0.6490 -0.8103
 3406SOL    HW210397   0.367   5.264   5.045  2.5132  2.1382  0.8571
 3407SOL     OW10398   1.052   0.979   0.665 -0.0768  0.0412 -0.1810
 3407SOL    HW110399   0.973   0.978   0.604 -0.5823 -0.7880  0.4699
 3407SOL    HW210400   1.055   1.066   0.715 -0.1072  0.4019 -0.7957
 3408SOL     OW10401   4.192   0.381   4.309  0.5013 -0.2550  0.3692
 3408SOL    HW110402   4.144   0.433   4.239  1.2712 -1.3281 -0.9890
 3408SOL    HW210403   4.127   0.325   4.360  0.0768 -0.2819 -0.1937
 3409SOL     OW10404   4.359   4.332   1.533  0.2422 -0.7964 -0.2919
 3409SOL    HW110405   4.323   4.322   1.626  1.3280 -1.0717  0.1123
 3409SOL    HW210406   4.283   4.328   1.468 -0.7363  1.0632  0.6576
 3410SOL     OW10407   4.862   3.807   4.727  0.4384 -0.0346  0.0163
 3410SOL    HW110408   4.935   3.742   4.750  1.2145  0.7092 -0.2801
 3410SOL    HW210409   4.894   3.869   4.655  0.3456  1.7128  1.3947
 3411SOL     OW10410   6.626   0.976   8.825 -0.3940  0.0983 -0.2896
 3411SOL    HW110411   6.693   0.979   8.899  0.9174 -3.1385 -1.1704
 3411SOL    HW210412   6.667   1.010   8.741  0.3769 -2.1271 -0.8907
 3412SOL     OW10413   1.473   1.207   7.803 -0.2361 -0.2626  0.0259
 3412SOL    HW110414   1.480   1.117   7.845  0.0294 -0.5940 -0.7171
 3412SOL    HW210415   1.552   1.223   7.744 -0.0786  0.6251  0.4689
 3413SOL     OW10416   8.410   5.086   5.791 -0.0170 -0.5539  0.4252
 3413SOL    HW110417   8.323   5.040   5.809 -0.2606 -0.9853 -1.6072
 3413SOL    HW210418   8.395   5.164   5.731  1.1021 -1.4115 -1.0403
 3414SOL     OW10419   0.217   4.100   8.017 -0.0083  0.1804  0.5356
 3414SOL    HW110420   0.285   4.164   8.053 -1.0092  2.8204 -1.8323
 3414SOL    HW210421   0.126   4.141   8.023 -0.5712 -0.5015 -1.9664
 3415SOL     OW10422   8.589   8.527   6.004 -0.1748  0.2850 -0.1586
 3415SOL    HW110423   8.537   8.489   5.928 -0.4816 -0.5413  0.4483
 3415SOL    HW210424   8.549   8.496   6.090  0.9533  0.1414  0.3248
 3416SOL     OW10425   8.724   6.253   8.243  0.0091 -0.1756  0.2814
 3416SOL    HW110426   8.766   6.250   8.334  0.0320 -1.4941  0.2425
 3416SOL    HW210427   8.625   6.244   8.252  0.1092 -1.7110  0.1237
 3417SOL     OW10428   1.722   3.155   6.706  0.0207  0.2108 -0.0875
 3417SOL    HW110429   1.696   3.229   6.644 -0.2115  0.2077  0.0073
 3417SOL    HW210430   1.641   3.103   6.733 -0.0691  1.0085  1.2602
 3418SOL     OW10431   1.253   4.488   0.290 -0.1186  0.3809 -0.1347
 3418SOL    HW110432   1.232   4.586   0.286 -2.7629 -0.1140 -0.0345
 3418SOL    HW210433   1.225   4.444   0.204  0.1128 -0.4451  0.2012
 3419SOL     OW10434   1.528   0.713   5.696  0.0692  0.0769 -0.1212
 3419SOL    HW110435   1.431   0.719   5.717 -0.4953 -0.2867 -2.3494
 3419SOL    HW210436   1.566   0.805   5.684  0.0236  0.2184  0.7574
 3420SOL     OW10437   1.926   3.231   4.234 -0.3823 -0.0835  0.6105
 3420SOL    HW110438   1.993   3.165   4.202  2.1343  2.1686  0.9078
 3420SOL    HW210439   1.864   3.254   4.159 -0.0082 -1.2194 -0.0742
 3421SOL     OW10440   0.695   6.710   3.327  0.1910 -0.1649 -0.0069
 3421SOL    HW110441   0.750   6.631   3.301  0.2945 -0.7936  1.9553
 3421SOL    HW210442   0.732   6.750   3.411 -1.0305  0.7561  0.1193
 3422SOL     OW10443   2.671   4.153   5.760  0.0250 -0.5516  0.1763
 3422SOL    HW110444   2.712   4.121   5.674  0.9413 -2.2056  1.1865
 3422SOL    HW210445   2.717   4.237   5.789  0.6882 -0.7665 -0.2248
 3423SOL     OW10446   6.137   0.287   3.461 -0.4453  0.7938 -0.1259
 3423SOL    HW110447   6.205   0.312   3.392  2.0366 -0.8581  1.5415
 3423SOL    HW210448   6.117   0.367   3.518  1.0054  1.0676  0.0476
 3424SOL     OW10449   1.740   2.060   6.118  0.5598 -0.0841 -0.0683
 3424SOL    HW110450   1.792   1.975   6.114  0.5944 -0.0525 -0.2766
 3424SOL    HW210451   1.794   2.135   6.081 -0.0309 -0.2510 -1.3255
 3425SOL     OW10452   3.430   0.974   3.337 -0.2729 -0.2662  0.1597
 3425SOL    HW110453   3.406   0.939   3.246 -0.7134 -0.2666  0.2753
 3425SOL    HW210454   3.530   0.975   3.346 -0.0785  2.1532 -1.2699
 3426SOL     OW10455   8.216   5.822   3.351  0.1550  0.8231  0.2928
 3426SOL    HW110456   8.257   5.860   3.434 -0.9077 -0.4740  1.4548
 3426SOL    HW210457   8.224   5.723   3.352 -0.4766  0.7471 -0.8282
 3427SOL     OW10458   0.392   4.369   6.985  0.4994 -0.3143  0.0388
 3427SOL    HW110459   0.369   4.433   7.059 -0.3510  0.8205 -1.1551
 3427SOL    HW210460   0.485   4.335   6.998  0.2579 -0.3880  1.7909
 3428SOL     OW10461   6.478   4.886   7.709  0.0975 -0.1320 -0.6028
 3428SOL    HW110462   6.466   4.955   7.781  1.4967  0.4776 -0.9219
 3428SOL    HW210463   6.463   4.929   7.620  0.3963 -0.3927 -0.7768
 3429SOL     OW10464   3.038   0.438   5.583 -0.1567  0.1070  0.2719
 3429SOL    HW110465   2.949   0.403   5.612 -0.6978  1.6889  0.6237
 3429SOL    HW210466   3.100   0.361   5.567 -1.9831 -1.1272 -1.4223
 3430SOL     OW10467   4.245   8.346   7.193 -0.4148  0.2780  0.3324
 3430SOL    HW110468   4.175   8.359   7.264 -0.2589  0.7146  0.4108
 3430SOL    HW210469   4.237   8.254   7.155 -1.0985  0.3519  0.2741
 3431SOL     OW10470   2.919   4.634   3.928  0.0741  0.8306  0.3168
 3431SOL    HW110471   2.962   4.571   3.864  0.9110 -0.1017  1.7384
 3431SOL    HW210472   2.834   4.670   3.888 -0.4236 -1.1848 -0.5422
 3432SOL     OW10473   6.788   7.417   7.373  0.5627  0.2999  0.1144
 3432SOL    HW110474   6.857   7.361   7.418  1.2489  1.4149  0.4703
 3432SOL    HW210475   6.803   7.513   7.395 -0.8377  0.6049 -0.1621
 3433SOL     OW10476   5.105   7.700   1.407  0.7517 -0.2643 -0.0390
 3433SOL    HW110477   5.032   7.633   1.394  0.9365 -0.4716 -0.0008
 3433SOL    HW210478   5.192   7.653   1.419  0.7952 -0.0373  0.5764
 3434SOL     OW10479   6.646   6.762   7.715  0.9602 -0.1039  0.5809
 3434SOL    HW110480   6.644   6.687   7.782  3.0858 -0.5857  0.1897
 3434SOL    HW210481   6.701   6.837   7.751 -0.0806  0.7462  0.4291
 3435SOL     OW10482   0.179   8.290   3.816 -0.1135 -0.3302  0.6845
 3435SOL    HW110483   0.176   8.218   3.886  4.1973 -0.7716  0.7011
 3435SOL    HW210484   0.196   8.378   3.860 -2.3911  0.3150  0.4208
 3436SOL     OW10485   5.677   1.885   2.765  0.7340  0.5027  0.1187
 3436SOL    HW110486   5.672   1.805   2.706  2.0539  0.3419  0.2050
 3436SOL    HW210487   5.587   1.928   2.770 -0.5947 -2.1781  1.7825
 3437SOL     OW10488   7.498   8.028   5.373 -0.4724 -0.6323 -0.1207
 3437SOL    HW110489   7.593   8.002   5.356 -0.5716 -0.1987 -1.5372
 3437SOL    HW210490   7.456   7.962   5.435  0.4351 -1.4905 -0.3834
 3438SOL     OW10491   4.773   0.473   4.342 -0.1480  0.2363  0.8030
 3438SOL    HW110492   4.833   0.528   4.400 -0.1729  0.8205  0.2973
 3438SOL    HW210493   4.716   0.534   4.287  1.8189 -0.1814 -1.8948
 3439SOL     OW10494   3.153   1.989   0.777 -0.1291  0.7104 -0.0001
 3439SOL    HW110495   3.204   2.065   0.816 -0.0055  0.5836  0.0856
 3439SOL    HW210496   3.217   1.916   0.750 -0.3515  0.0975  1.1052
 3440SOL     OW10497   2.995   3.025   0.865 -0.0979 -0.0108  0.3073
 3440SOL    HW110498   3.059   3.007   0.939  0.5871 -0.4486 -0.3706
 3440SOL    HW210499   3.045   3.049   0.782 -0.8198 -0.0817 -0.1645
 3441SOL     OW10500   4.352   3.000   2.703  0.6729  0.3002 -0.2274
 3441SOL    HW110501   4.440   3.046   2.689  0.3608  0.5236 -1.5993
 3441SOL    HW210502   4.323   2.958   2.617 -0.6071  0.2908  0.1986
 3442SOL     OW10503   5.556   1.081   2.303 -0.1511  0.2864 -0.6200
 3442SOL    HW110504   5.533   1.177   2.315 -0.5962  0.2134 -0.8375
 3442SOL    HW210505   5.490   1.039   2.240  1.2486  0.3309 -2.1715
 3443SOL     OW10506   7.360   8.328   4.579  0.4577 -0.4650 -0.1511
 3443SOL    HW110507   7.394   8.236   4.559 -0.5460 -1.2392  1.4339
 3443SOL    HW210508   7.338   8.375   4.494 -0.5958 -2.3319 -0.9785
 3444SOL     OW10509   6.550   0.412   0.862  0.0617  0.1959  0.1295
 3444SOL    HW110510   6.591   0.370   0.943  0.8235 -0.2713 -0.4726
 3444SOL    HW210511   6.451   0.421   0.875  0.1084 -0.3011  0.9198
 3445SOL     OW10512   7.748   5.406   4.184 -0.1082  0.3556  0.0514
 3445SOL    HW110513   7.770   5.495   4.224 -0.0961  0.5019 -0.2781
 3445SOL    HW210514   7.769   5.334   4.250 -0.3656  0.6136  0.4193
 3446SOL     OW10515   1.427   6.116   4.576 -0.2951 -0.3578 -0.1442
 3446SOL    HW110516   1.354   6.123   4.508  0.5650 -1.2278 -1.1875
 3446SOL    HW210517   1.482   6.199   4.575  0.3099 -0.7534 -1.2376
 3447SOL     OW10518   5.321   4.869   5.936 -0.1149 -0.3427  0.4781
 3447SOL    HW110519   5.304   4.866   5.837 -1.4771 -0.2662  0.7023
 3447SOL    HW210520   5.404   4.924   5.953  0.3993 -0.7371 -0.6387
 3448SOL     OW10521   1.267   6.210   5.767 -0.0399 -0.3963  0.4526
 3448SOL    HW110522   1.254   6.275   5.692  0.8243  0.2148  0.8231
 3448SOL    HW210523   1.362   6.180   5.770 -0.2243 -0.9577  0.8686
 3449SOL     OW10524   1.270   2.809   5.338  0.6331  0.2667  0.4061
 3449SOL    HW110525   1.232   2.718   5.321 -0.2736  1.0736 -2.3133
 3449SOL    HW210526   1.278   2.859   5.252  0.1389  3.1562  1.9024
 3450SOL     OW10527   5.323   8.451   1.859  0.1157 -0.0694  0.1216
 3450SOL    HW110528   5.423   8.455   1.862  0.1607  0.2875 -1.2950
 3450SOL    HW210529   5.291   8.470   1.766 -1.2795 -0.1133  0.5646
 3451SOL     OW10530   7.514   4.392   0.571 -0.3749 -0.6258 -0.8031
 3451SOL    HW110531   7.586   4.334   0.610 -0.0211  0.3865  0.0894
 3451SOL    HW210532   7.555   4.477   0.537 -1.3039  0.6191  1.0549
 3452SOL     OW10533   8.847   6.437   1.820  0.6527  0.4299 -0.3859
 3452SOL    HW110534   8.756   6.398   1.835  0.6559  0.1172 -1.1326
 3452SOL    HW210535   8.891   6.390   1.744  1.2608  0.8899 -0.3235
 3453SOL     OW10536   6.748   6.647   3.410  0.3141  0.3458 -0.2074
 3453SOL    HW110537   6.749   6.643   3.310  0.4436 -0.0960 -0.1916
 3453SOL    HW210538   6.653   6.652   3.442  0.0773 -2.4094 -0.2657
 3454SOL     OW10539   8.426   7.454   7.098 -0.2417 -0.6427 -0.1288
 3454SOL    HW110540   8.347   7.492   7.145 -0.2210 -0.0636 -0.5547
 3454SOL    HW210541   8.453   7.368   7.142  1.5182  1.2323  2.7677
 3455SOL     OW10542   4.865   8.568   4.844 -0.2705 -0.0767 -0.2438
 3455SOL    HW110543   4.910   8.655   4.829 -2.8539  1.8992  2.3869
 3455SOL    HW210544   4.920   8.511   4.904  0.5390  0.5509 -0.3831
 3456SOL     OW10545   0.752   7.800   7.696  0.4207  0.0829 -0.9396
 3456SOL    HW110546   0.822   7.790   7.767 -0.4281  0.9908  0.0601
 3456SOL    HW210547   0.785   7.861   7.624  0.6289  0.5584 -0.4400
 3457SOL     OW10548   3.709   4.550   2.835  0.7559 -0.3957  0.2885
 3457SOL    HW110549   3.645   4.475   2.847  0.6462 -0.4898 -0.7666
 3457SOL    HW210550   3.663   4.637   2.852 -0.0459 -0.3753 -1.6896
 3458SOL     OW10551   1.636   7.248   0.928  0.6624 -0.7477  0.1493
 3458SOL    HW110552   1.620   7.263   0.831 -0.1978 -0.4369  0.3279
 3458SOL    HW210553   1.734   7.239   0.945  0.7471 -2.5864 -0.9940
 3459SOL     OW10554   0.221   4.413   3.396  0.4760  0.5098  0.5050
 3459SOL    HW110555   0.147   4.393   3.332  0.4679  0.8340  0.4121
 3459SOL    HW210556   0.308   4.410   3.347  0.8107 -2.3321  1.0753
 3460SOL     OW10557   7.742   1.174   1.272  0.0692  0.2133  0.1744
 3460SOL    HW110558   7.713   1.239   1.202 -0.5471  0.0723  0.2940
 3460SOL    HW210559   7.762   1.223   1.357 -1.1285  0.1926  0.4961
 3461SOL     OW10560   8.573   7.142   0.662  0.0642 -0.9499  0.1184
 3461SOL    HW110561   8.635   7.174   0.589  0.0349  0.5268  0.7045
 3461SOL    HW210562   8.624   7.085   0.726  0.4761 -0.9423 -0.1983
 3462SOL     OW10563   4.967   5.141   6.545 -0.2865  0.2963 -0.0006
 3462SOL    HW110564   4.920   5.053   6.545  0.9687 -0.3911 -0.4877
 3462SOL    HW210565   4.910   5.209   6.499  0.6995 -1.3948 -4.1673
 3463SOL     OW10566   3.438   6.147   3.663 -0.1392  0.0365  0.1506
 3463SOL    HW110567   3.361   6.193   3.619 -0.5824 -1.4866 -0.7262
 3463SOL    HW210568   3.512   6.135   3.597 -0.6192 -1.8287 -0.0957
 3464SOL     OW10569   4.581   2.199   6.101  0.0388 -0.4923 -0.1617
 3464SOL    HW110570   4.620   2.251   6.176 -0.6193  0.8931 -0.7546
 3464SOL    HW210571   4.652   2.177   6.034  0.2873 -0.2394  0.0201
 3465SOL     OW10572   6.692   5.053   6.730 -0.0843 -0.3757 -0.1798
 3465SOL    HW110573   6.621   4.997   6.686  1.4616 -2.3488 -0.3327
 3465SOL    HW210574   6.705   5.023   6.824 -0.4131  0.9395  0.3029
 3466SOL     OW10575   6.728   4.747   3.976 -0.2694  0.1786  0.2510
 3466SOL    HW110576   6.814   4.796   3.969 -0.0221 -0.4977 -2.2845
 3466SOL    HW210577   6.735   4.676   4.046  1.0675  0.4514  0.4065
 3467SOL     OW10578   6.296   3.258   0.021 -0.2073  0.0760 -0.2864
 3467SOL    HW110579   6.275   3.279  -0.075  0.2147 -0.3767 -0.4836
 3467SOL    HW210580   6.214   3.225   0.066 -0.4042  0.2719 -0.4970
 3468SOL     OW10581   1.738   6.298   5.150 -0.1704  0.2141 -0.1385
 3468SOL    HW110582   1.662   6.302   5.215 -0.0094 -0.9814  0.1415
 3468SOL    HW210583   1.757   6.203   5.127 -0.7935  0.6162 -2.6073
 3469SOL     OW10584   2.640   4.276   0.078  0.5133  0.3351  0.0638
 3469SOL    HW110585   2.558   4.240   0.123 -1.8134  2.5211 -2.1036
 3469SOL    HW210586   2.667   4.361   0.123  2.2474 -0.8317  1.3410
 3470SOL     OW10587   5.941   1.145   1.651  0.0752  0.1853  0.7168
 3470SOL    HW110588   6.031   1.166   1.691  1.7381 -1.0673 -2.0313
 3470SOL    HW210589   5.912   1.055   1.682  1.7367 -1.1348 -1.2917
 3471SOL     OW10590   7.471   5.763   4.947  0.5799  0.1179 -0.0584
 3471SOL    HW110591   7.501   5.852   4.979  0.5210 -0.2802  1.1629
 3471SOL    HW210592   7.391   5.774   4.888 -0.7742  0.7590  1.7953
 3472SOL     OW10593   0.193   3.914   4.358 -0.2681  0.5202  0.3029
 3472SOL    HW110594   0.150   3.981   4.419  0.6496 -0.9221  2.6572
 3472SOL    HW210595   0.249   3.851   4.411  0.5335 -0.9089 -2.0638
 3473SOL     OW10596   6.173   6.944   2.971 -0.3804 -0.2495 -0.5012
 3473SOL    HW110597   6.218   6.954   2.882 -1.0756  0.1396 -0.8121
 3473SOL    HW210598   6.227   6.990   3.041 -1.1632  1.7548 -1.1546
 3474SOL     OW10599   2.892   0.722   7.288 -0.7433  0.3144  0.3488
 3474SOL    HW110600   2.831   0.679   7.222  0.9905 -0.7364 -0.6311
 3474SOL    HW210601   2.923   0.654   7.355  0.1532  0.5806  0.2163
 3475SOL     OW10602   2.869   6.757   4.002 -0.4137  0.3493  0.1704
 3475SOL    HW110603   2.854   6.844   4.050  0.0498  1.6895 -1.9772
 3475SOL    HW210604   2.966   6.733   4.006 -0.4464  0.2280  0.2550
 3476SOL     OW10605   5.086   0.474   8.256 -0.3270 -0.0920  0.1126
 3476SOL    HW110606   4.992   0.463   8.226  0.3733 -0.9386 -1.9753
 3476SOL    HW210607   5.129   0.384   8.266  0.9350  0.2733 -1.4665
 3477SOL     OW10608   6.391   4.723   6.883  0.0383  0.2219  0.0654
 3477SOL    HW110609   6.305   4.737   6.834 -0.4373  0.7546  1.0111
 3477SOL    HW210610   6.468   4.738   6.821 -0.5413  0.5051 -0.5990
 3478SOL     OW10611   7.254   5.320   7.134  0.3023 -0.3832  0.1438
 3478SOL    HW110612   7.308   5.320   7.218 -0.5604 -0.0072  0.7105
 3478SOL    HW210613   7.221   5.227   7.116 -0.0313 -0.3491  0.5680
 3479SOL     OW10614   1.886   3.527   3.494 -0.2450  0.1887 -0.2683
 3479SOL    HW110615   1.807   3.485   3.539  0.0509 -0.7042 -0.5820
 3479SOL    HW210616   1.937   3.458   3.443  0.4267  0.8657 -0.5312
 3480SOL     OW10617   1.661   1.499   6.714  0.2315 -0.0133 -0.0857
 3480SOL    HW110618   1.609   1.557   6.776 -0.3533  0.0699 -0.6521
 3480SOL    HW210619   1.618   1.499   6.624 -1.0584 -2.9991  0.4209
 3481SOL     OW10620   1.802   1.378   0.339 -0.4426 -0.0646 -0.0099
 3481SOL    HW110621   1.867   1.323   0.288  0.2576  0.4819  0.2730
 3481SOL    HW210622   1.709   1.347   0.320 -0.0790 -1.1698 -0.0521
 3482SOL     OW10623   4.334   0.794   5.557  0.0154 -0.0777  0.1907
 3482SOL    HW110624   4.383   0.708   5.547  0.2745  0.1925 -1.0671
 3482SOL    HW210625   4.243   0.785   5.516 -0.2117  0.0507  0.6573
 3483SOL     OW10626   3.619   3.415   5.906  0.1734  0.2587  0.3976
 3483SOL    HW110627   3.554   3.356   5.954 -0.2445  0.0884 -0.3495
 3483SOL    HW210628   3.601   3.511   5.927  0.3959  0.1598  1.0567
 3484SOL     OW10629   5.233   4.978   0.355  0.0806  1.0847  0.0745
 3484SOL    HW110630   5.269   5.027   0.276 -1.6368  0.3457 -1.2367
 3484SOL    HW210631   5.134   4.987   0.359  0.0614  0.6449  1.8546
 3485SOL     OW10632   7.033   2.076   8.177 -0.1827 -0.1395  0.4249
 3485SOL    HW110633   7.114   2.068   8.118 -0.5011 -0.8645  0.0708
 3485SOL    HW210634   7.050   2.028   8.262  0.1812  0.6912  0.8351
 3486SOL     OW10635   5.505   4.996   4.865 -0.0886 -0.2868 -0.1791
 3486SOL    HW110636   5.458   4.915   4.900 -0.7588 -0.3120 -1.0855
 3486SOL    HW210637   5.455   5.032   4.786  0.8347  0.3370 -0.5011
 3487SOL     OW10638   2.094   6.497   0.341  0.4669  0.5425  0.0835
 3487SOL    HW110639   2.156   6.449   0.279  0.2265  0.6194 -0.2188
 3487SOL    HW210640   2.035   6.557   0.288  0.5227  0.9013  0.4250
 3488SOL     OW10641   7.027   2.947   1.866 -0.0612 -0.3005  0.1276
 3488SOL    HW110642   6.948   2.951   1.804 -0.5625 -0.4496  0.7488
 3488SOL    HW210643   7.084   3.028   1.853 -0.0391 -0.4326 -0.6834
 3489SOL     OW10644   1.017   3.031   7.443 -0.2376 -0.2567  0.3739
 3489SOL    HW110645   0.962   3.108   7.475 -2.3926 -1.0816 -1.0905
 3489SOL    HW210646   1.114   3.051   7.455 -0.7863  1.8992  1.6881
 3490SOL     OW10647   6.256   7.369   4.855  0.2614  0.0209  0.2431
 3490SOL    HW110648   6.215   7.303   4.791 -0.7065  0.2437  0.6061
 3490SOL    HW210649   6.228   7.346   4.948  2.4528 -0.8791  0.7247
 3491SOL     OW10650   2.519   7.874   6.551  0.5277 -0.0749  0.0374
 3491SOL    HW110651   2.558   7.949   6.604 -0.9261  1.6888 -1.2707
 3491SOL    HW210652   2.572   7.860   6.467  1.1422 -0.9418  0.5530
 3492SOL     OW10653   4.855   1.435   3.904 -0.1633  0.7904 -0.8093
 3492SOL    HW110654   4.938   1.451   3.958 -0.3916  1.2515 -0.5894
 3492SOL    HW210655   4.837   1.337   3.899  0.9297  0.6152 -1.6701
 3493SOL     OW10656   3.149   1.930   6.171 -0.2590 -0.1154  0.0179
 3493SOL    HW110657   3.201   1.869   6.230  0.1730  0.3914  0.1746
 3493SOL    HW210658   3.124   1.883   6.086  4.3038  0.8649 -2.1540
 3494SOL     OW10659   1.198   1.341   7.330  0.4615 -0.5822 -0.3021
 3494SOL    HW110660   1.294   1.356   7.353  0.2306  1.2161 -0.3669
 3494SOL    HW210661   1.140   1.380   7.401 -0.2173  0.3247 -1.3289
 3495SOL     OW10662   6.313   0.933   8.127 -0.3960 -0.0764 -0.1266
 3495SOL    HW110663   6.334   0.887   8.041 -1.1364 -0.8409  0.0808
 3495SOL    HW210664   6.257   0.872   8.184  0.0505  0.4274  0.8787
 3496SOL     OW10665   4.582   0.277   3.237  0.2527  0.3636 -0.5881
 3496SOL    HW110666   4.629   0.205   3.287 -0.6164  0.4261  0.3451
 3496SOL    HW210667   4.615   0.366   3.269 -0.9273  0.4272  0.5698
 3497SOL     OW10668   0.138   7.533   3.131  0.4474  0.1317 -0.3114
 3497SOL    HW110669   0.207   7.602   3.152  0.9823 -1.0692  2.3250
 3497SOL    HW210670   0.051   7.560   3.171  0.0667  0.3330 -1.2520
 3498SOL     OW10671   7.420   7.210   8.721  0.0902 -0.1032  0.7995
 3498SOL    HW110672   7.421   7.241   8.816  2.5552 -0.1198  0.8457
 3498SOL    HW210673   7.502   7.244   8.674  0.3084 -2.3089 -0.5593
 3499SOL     OW10674   0.671   3.078   6.148 -0.0275  0.0354 -0.0708
 3499SOL    HW110675   0.729   3.025   6.085  0.9985  0.7373  0.2690
 3499SOL    HW210676   0.712   3.168   6.164  0.7581 -0.7423  3.0273
 3500SOL     OW10677   4.614   5.765   0.094 -0.1858 -0.2365 -0.0172
 3500SOL    HW110678   4.672   5.699   0.141  3.4053  1.8560 -1.0974
 3500SOL    HW210679   4.547   5.717   0.039  1.9444 -3.0017 -0.4173
 3501SOL     OW10680   7.595   7.382   8.498 -0.1466 -0.2559 -0.1759
 3501SOL    HW110681   7.682   7.409   8.456  0.0642 -2.0603 -0.9949
 3501SOL    HW210682   7.533   7.349   8.427  0.0035 -2.8227  0.8031
 3502SOL     OW10683   1.638   0.526   8.808  0.5165  0.2576  0.3256
 3502SOL    HW110684   1.563   0.560   8.866  2.7534  0.5777  3.2989
 3502SOL    HW210685   1.619   0.432   8.781  0.1135 -0.6257  3.2767
 3503SOL     OW10686   5.186   4.011   5.485  0.1543 -0.2953  0.9041
 3503SOL    HW110687   5.256   3.960   5.534 -0.7697 -1.3910  1.1612
 3503SOL    HW210688   5.112   4.035   5.548  0.3843  1.0199  0.6857
 3504SOL     OW10689   5.307   1.457   0.232  0.1084 -0.3205 -0.2120
 3504SOL    HW110690   5.218   1.466   0.187 -0.4969 -1.4830  0.6879
 3504SOL    HW210691   5.380   1.458   0.164 -0.7266 -1.1895 -1.1418
 3505SOL     OW10692   2.043   4.559   6.866  0.2107  0.0735 -0.1422
 3505SOL    HW110693   1.954   4.512   6.861 -0.3564  1.0521  0.5112
 3505SOL    HW210694   2.031   4.649   6.908  1.4961  0.2883 -0.2022
 3506SOL     OW10695   2.999   3.275   6.529  0.3091  0.1076  0.2898
 3506SOL    HW110696   2.963   3.197   6.478  1.6115  0.0798 -0.6403
 3506SOL    HW210697   3.078   3.246   6.583  0.1366  0.5611  0.8038
 3507SOL     OW10698   4.389   2.007   3.472  0.0591  0.2594  0.0036
 3507SOL    HW110699   4.439   1.945   3.532 -1.3411  1.6192  2.7582
 3507SOL    HW210700   4.291   1.992   3.483 -0.2608  1.2568 -1.2137
 3508SOL     OW10701   5.880   3.582   3.798 -0.2737 -0.4691  0.0318
 3508SOL    HW110702   5.850   3.500   3.751  0.3032  0.3686 -1.8730
 3508SOL    HW210703   5.967   3.614   3.760 -1.3644  2.0332 -0.6242
 3509SOL     OW10704   2.991   6.258   0.750 -0.1540 -0.1043 -0.6211
 3509SOL    HW110705   2.895   6.265   0.775 -0.3218  0.4015 -1.3710
 3509SOL    HW210706   3.001   6.269   0.651  0.2870 -3.6945 -1.1372
 3510SOL     OW10707   1.850   4.448   0.114  0.8046  0.5809 -0.4585
 3510SOL    HW110708   1.900   4.464   0.029  1.9971  2.4325  0.5307
 3510SOL    HW210709   1.804   4.533   0.142 -1.0895 -0.4855 -0.1706
 3511SOL     OW10710   4.780   4.435   6.134  0.1196 -0.0031  0.0990
 3511SOL    HW110711   4.836   4.392   6.205 -2.0361 -3.0717  0.1400
 3511SOL    HW210712   4.784   4.380   6.051 -0.7130  1.1934 -0.7604
 3512SOL     OW10713   7.110   2.066   8.639 -0.5025 -0.2831  0.3489
 3512SOL    HW110714   7.024   2.118   8.641  0.2423  1.0062  0.3052
 3512SOL    HW210715   7.150   2.064   8.731 -0.5113 -0.7567  0.3430
 3513SOL     OW10716   4.687   1.550   3.517  0.0484  0.3637 -0.4544
 3513SOL    HW110717   4.707   1.552   3.615  0.8639 -1.2135 -0.5463
 3513SOL    HW210718   4.617   1.482   3.498  2.9908 -2.7351 -1.3412
 3514SOL     OW10719   6.248   1.046   1.174 -0.0830 -0.4260 -0.3534
 3514SOL    HW110720   6.344   1.064   1.155  0.1734 -1.1990  0.1931
 3514SOL    HW210721   6.231   0.948   1.176 -0.6393 -0.3276  0.7029
 3515SOL     OW10722   8.635   8.355   5.320  0.2596 -0.5889 -0.2549
 3515SOL    HW110723   8.592   8.439   5.286 -0.7225  0.2760  2.7786
 3515SOL    HW210724   8.729   8.374   5.348 -0.2852 -0.1589  1.3991
 3516SOL     OW10725   1.357   2.412   4.003  0.3188  0.3935 -0.2030
 3516SOL    HW110726   1.437   2.352   3.995  0.4133  0.6664 -1.5528
 3516SOL    HW210727   1.273   2.358   3.998  0.4029  0.1425  0.8804
 3517SOL     OW10728   0.925   3.650   4.120 -0.0568 -0.6664 -0.4103
 3517SOL    HW110729   0.855   3.721   4.124  1.1538  0.5075  1.6595
 3517SOL    HW210730   1.015   3.692   4.126  0.7300 -2.3435  0.1660
 3518SOL     OW10731   6.488   5.670   1.256 -0.0903  0.3039 -0.2655
 3518SOL    HW110732   6.429   5.743   1.221 -0.6856 -0.7219 -1.4740
 3518SOL    HW210733   6.522   5.695   1.346 -0.5641  1.9142 -0.5052
 3519SOL     OW10734   8.539   3.728   3.920 -0.6499  0.6722  0.3787
 3519SOL    HW110735   8.456   3.739   3.973 -1.1758  0.1883 -0.3212
 3519SOL    HW210736   8.618   3.721   3.982 -1.3310 -0.6661  1.1524
 3520SOL     OW10737   4.149   2.222   3.586  0.3668 -0.3530 -1.1728
 3520SOL    HW110738   4.135   2.132   3.545  1.1261 -1.4360  0.7942
 3520SOL    HW210739   4.219   2.215   3.657 -0.6785  1.4653  0.0994
 3521SOL     OW10740   0.117   1.518   8.390  0.2010  0.0911  0.6058
 3521SOL    HW110741   0.065   1.433   8.401  0.8599 -0.4612 -0.3258
 3521SOL    HW210742   0.213   1.495   8.370 -0.0237  0.9923 -1.7580
 3522SOL     OW10743   2.829   1.604   3.399  0.7253  0.4218 -0.4306
 3522SOL    HW110744   2.815   1.621   3.497 -0.9830 -1.0167 -0.3579
 3522SOL    HW210745   2.883   1.521   3.388  0.7950  0.5043 -0.7049
 3523SOL     OW10746   3.744   3.486   1.880 -0.9251  0.0315  0.4201
 3523SOL    HW110747   3.654   3.467   1.919 -2.5086  3.0844 -1.4275
 3523SOL    HW210748   3.781   3.570   1.919 -0.5045  0.7092 -1.3594
 3524SOL     OW10749   5.436   4.922   3.361  0.3393 -0.3267  0.0020
 3524SOL    HW110750   5.441   4.961   3.453  3.1621  0.4867 -0.4210
 3524SOL    HW210751   5.486   4.836   3.359  1.9836  0.6016 -1.1483
 3525SOL     OW10752   7.310   4.233   4.204 -0.2821  0.1813  0.5281
 3525SOL    HW110753   7.243   4.260   4.273 -2.1329 -2.5425 -0.0006
 3525SOL    HW210754   7.263   4.183   4.131  2.3407 -1.9746  0.1502
 3526SOL     OW10755   4.108   6.035   5.016  0.1262 -0.3399 -0.2935
 3526SOL    HW110756   4.139   5.969   4.948 -1.4386 -2.5480  1.0149
 3526SOL    HW210757   4.179   6.048   5.085 -0.0403 -1.7585  0.1755
 3527SOL     OW10758   6.580   8.291   2.616  0.3254 -0.3444  0.5137
 3527SOL    HW110759   6.623   8.370   2.574 -1.9471  0.7091  0.0364
 3527SOL    HW210760   6.572   8.306   2.715  1.4663 -0.7857  0.6906
 3528SOL     OW10761   8.317   2.472   8.076  0.4028  0.4109 -0.4097
 3528SOL    HW110762   8.264   2.415   8.014  1.4745 -1.0628 -0.0244
 3528SOL    HW210763   8.404   2.428   8.096  1.0539  1.9498  0.3360
 3529SOL     OW10764   0.100   6.676   1.677  0.5359  1.1277  0.4604
 3529SOL    HW110765   0.107   6.580   1.706  0.9811  0.9185 -0.3085
 3529SOL    HW210766   0.161   6.732   1.732  0.6369  0.8895  0.5912
 3530SOL     OW10767   6.479   5.077   2.192  0.0934 -0.1909 -0.0003
 3530SOL    HW110768   6.414   5.150   2.214  0.3067 -0.1677  0.5704
 3530SOL    HW210769   6.487   5.068   2.093 -1.5372 -0.8649 -0.1170
 3531SOL     OW10770   4.998   3.254   2.044 -0.6553 -0.6804 -0.7515
 3531SOL    HW110771   4.932   3.317   2.085 -0.4350 -0.7285 -0.3183
 3531SOL    HW210772   5.045   3.203   2.116 -1.2430 -1.7673 -1.1226
 3532SOL     OW10773   0.606   3.967   2.929  0.3350  0.2284 -0.0342
 3532SOL    HW110774   0.513   3.950   2.961  0.0477 -0.6988 -1.2420
 3532SOL    HW210775   0.604   4.032   2.853  0.8178  1.1590  0.7339
 3533SOL     OW10776   8.329   6.691   3.342 -0.1908 -0.3958  0.2238
 3533SOL    HW110777   8.258   6.729   3.283  1.3609  0.8735 -0.9048
 3533SOL    HW210778   8.287   6.658   3.427 -2.0675  0.6149 -0.2459
 3534SOL     OW10779   1.774   0.177   2.460 -0.6399  0.3459  0.3049
 3534SOL    HW110780   1.758   0.173   2.559 -0.0183  0.1665  0.4051
 3534SOL    HW210781   1.872   0.169   2.442 -0.6908  1.0059 -0.2942
 3535SOL     OW10782   8.218   6.231   5.803 -0.6469 -0.0434  0.4912
 3535SOL    HW110783   8.131   6.232   5.852 -0.1920  0.2970  1.3224
 3535SOL    HW210784   8.264   6.320   5.815 -0.5603  0.0773 -0.6306
 3536SOL     OW10785   2.533   8.498   2.067  0.3720 -0.1404  0.4264
 3536SOL    HW110786   2.468   8.570   2.042 -1.7305 -1.8723  0.6145
 3536SOL    HW210787   2.492   8.409   2.051  2.4152 -1.3400  1.4256
 3537SOL     OW10788   7.286   7.011   4.656 -1.3153 -0.1645  0.5960
 3537SOL    HW110789   7.238   6.966   4.731  0.1910  0.4863  2.0204
 3537SOL    HW210790   7.379   7.035   4.686 -1.3600  1.9954 -0.7898
 3538SOL     OW10791   0.983   7.998   6.425 -0.4359 -0.0059  0.2553
 3538SOL    HW110792   0.921   7.948   6.486  0.1785 -0.7407  0.2968
 3538SOL    HW210793   0.961   8.095   6.427 -1.3611 -0.2129  0.5281
 3539SOL     OW10794   1.000   8.611   0.135 -0.1422  0.0885  0.0456
 3539SOL    HW110795   0.986   8.525   0.086  0.3106  0.0526 -0.0199
 3539SOL    HW210796   1.065   8.669   0.084 -0.2300  0.3531  0.2308
 3540SOL     OW10797   1.513   2.222   6.228  0.0266 -0.1929  0.0709
 3540SOL    HW110798   1.533   2.142   6.171 -0.5081 -1.5644  1.6993
 3540SOL    HW210799   1.593   2.243   6.284 -0.1821 -0.2646  0.3995
 3541SOL     OW10800   4.495   4.831   5.331  0.8592 -0.1048 -0.0544
 3541SOL    HW110801   4.588   4.795   5.336  1.2011  0.5447 -1.3448
 3541SOL    HW210802   4.433   4.759   5.300  0.9886 -0.4352  0.4403
 3542SOL     OW10803   6.114   7.435   1.201  0.1063 -0.2744  0.1037
 3542SOL    HW110804   6.074   7.387   1.279 -1.9019 -1.0182 -1.2718
 3542SOL    HW210805   6.182   7.377   1.157 -1.2098 -1.2971 -0.6506
 3543SOL     OW10806   3.395   0.482   1.787 -0.1233  0.1288  0.1063
 3543SOL    HW110807   3.458   0.410   1.814 -1.5373 -0.4623  2.0511
 3543SOL    HW210808   3.337   0.449   1.712  0.5962  0.0015 -0.4033
 3544SOL     OW10809   3.052   6.508   3.172 -0.6782  0.1024 -0.0442
 3544SOL    HW110810   3.099   6.583   3.220  0.4728  0.1887 -1.2431
 3544SOL    HW210811   2.969   6.543   3.128 -0.7554  0.4168  0.3432
 3545SOL     OW10812   5.333   8.819   7.851 -0.3017  0.0927 -0.2331
 3545SOL    HW110813   5.292   8.746   7.796 -1.3471  0.5388 -0.0655
 3545SOL    HW210814   5.267   8.894   7.862  1.7473  2.6092 -3.1862
 3546SOL     OW10815   0.148   0.768   4.453 -0.3423  0.0651 -0.0264
 3546SOL    HW110816   0.226   0.829   4.465  1.1618 -1.7888  0.1350
 3546SOL    HW210817   0.148   0.731   4.360 -0.5075 -0.5987  0.2257
 3547SOL     OW10818   7.281   3.453   2.222 -0.3497  0.1019  0.7103
 3547SOL    HW110819   7.336   3.435   2.141 -1.4223 -1.4806  0.2743
 3547SOL    HW210820   7.300   3.544   2.257  0.2789  0.7427 -1.2096
 3548SOL     OW10821   0.414   6.607   6.629 -0.2753 -0.4739  0.4124
 3548SOL    HW110822   0.418   6.694   6.580  0.0111 -0.9867 -0.4943
 3548SOL    HW210823   0.379   6.536   6.568  2.1942 -1.6047  0.2357
 3549SOL     OW10824   0.104   2.126   1.399 -0.0416 -0.2826 -0.3292
 3549SOL    HW110825   0.158   2.097   1.478 -0.5369 -0.5093 -0.0766
 3549SOL    HW210826   0.031   2.186   1.428 -1.1478 -1.5431 -0.4152
 3550SOL     OW10827   4.285   4.251   5.551  0.3115  0.0118  0.0279
 3550SOL    HW110828   4.272   4.347   5.574  0.2668  0.3034 -1.1713
 3550SOL    HW210829   4.217   4.223   5.483 -1.6991 -1.7261  2.5566
 3551SOL     OW10830   0.340   1.282   6.857  0.3156  0.2180 -0.3689
 3551SOL    HW110831   0.393   1.260   6.939 -1.1104 -1.6772  0.1115
 3551SOL    HW210832   0.391   1.252   6.776  0.6842 -0.1160 -0.0170
 3552SOL     OW10833   5.436   3.325   7.930  0.5067  0.2982  0.1630
 3552SOL    HW110834   5.494   3.278   7.997 -0.2538  0.5203  0.9909
 3552SOL    HW210835   5.422   3.420   7.958 -1.9075 -0.2749  1.0764
 3553SOL     OW10836   7.138   5.835   6.321 -0.3486 -0.4910  0.5378
 3553SOL    HW110837   7.056   5.863   6.270 -1.1187  0.2445  2.1163
 3553SOL    HW210838   7.127   5.741   6.353 -0.0413 -0.8078 -0.2455
 3554SOL     OW10839   5.693   5.376   5.877  0.1240 -0.6978  0.4028
 3554SOL    HW110840   5.629   5.449   5.853  0.9194 -0.4032 -0.9350
 3554SOL    HW210841   5.652   5.287   5.857 -0.5076 -0.5843  1.1833
 3555SOL     OW10842   3.814   2.569   1.573 -0.3349  0.3461  0.7655
 3555SOL    HW110843   3.903   2.523   1.574  0.7908  2.3489 -0.2509
 3555SOL    HW210844   3.767   2.551   1.659  0.8966 -1.0232  1.2025
 3556SOL     OW10845   7.391   7.460   8.063  0.3570  0.3087  0.7100
 3556SOL    HW110846   7.304   7.456   8.112 -0.6708 -2.4678 -1.0979
 3556SOL    HW210847   7.406   7.553   8.029 -1.1064  1.2087  2.3401
 3557SOL     OW10848   6.648   7.608   4.771  0.0776 -0.1540 -0.2098
 3557SOL    HW110849   6.710   7.568   4.838 -1.4375 -1.0772  0.7115
 3557SOL    HW210850   6.612   7.536   4.712  1.3392  0.6413 -2.0202
 3558SOL     OW10851   0.726   1.747   8.359 -0.4262 -0.2239  0.2523
 3558SOL    HW110852   0.641   1.794   8.338 -0.3015 -0.0035  0.2362
 3558SOL    HW210853   0.794   1.813   8.391  0.7372  0.1330 -2.6178
 3559SOL     OW10854   8.160   3.825   1.371  0.7996  0.3706 -0.3027
 3559SOL    HW110855   8.156   3.776   1.458  0.3507 -0.4994 -0.7948
 3559SOL    HW210856   8.247   3.874   1.364  0.7556  0.6144  0.7094
 3560SOL     OW10857   5.433   0.505   5.728  0.3413  0.3104 -0.1993
 3560SOL    HW110858   5.440   0.601   5.699 -0.6860 -0.2884 -2.6161
 3560SOL    HW210859   5.337   0.478   5.732  0.6505 -0.9711 -0.8709
 3561SOL     OW10860   8.203   7.481   8.534 -0.1904 -0.3703 -0.5262
 3561SOL    HW110861   8.106   7.476   8.554 -0.0945  0.3455  0.1721
 3561SOL    HW210862   8.218   7.468   8.436 -1.0467  0.0761 -0.7230
 3562SOL     OW10863   2.835   3.242   5.306  0.2207  0.5398  0.1839
 3562SOL    HW110864   2.813   3.165   5.366  2.5498  0.7348  1.4071
 3562SOL    HW210865   2.912   3.216   5.247  0.4784  1.6494  0.0169
 3563SOL     OW10866   1.119   6.198   2.106  0.2946 -0.0788  0.2461
 3563SOL    HW110867   1.041   6.230   2.160  0.2956  0.2711  0.0468
 3563SOL    HW210868   1.100   6.107   2.070 -0.4783  0.4524 -0.7133
 3564SOL     OW10869   2.254   0.914   7.131  0.5527 -0.2230 -0.1039
 3564SOL    HW110870   2.185   0.948   7.067  1.1054  0.6046 -0.2721
 3564SOL    HW210871   2.316   0.851   7.084  0.0029 -0.8805  0.0206
 3565SOL     OW10872   1.602   0.318   5.403  0.3380  0.3364 -0.3237
 3565SOL    HW110873   1.584   0.413   5.429 -2.0438 -0.0293 -0.3894
 3565SOL    HW210874   1.515   0.269   5.392  1.4344 -2.6061  2.3502
 3566SOL     OW10875   5.325   1.497   1.630 -0.0838  0.3016 -0.0783
 3566SOL    HW110876   5.334   1.421   1.694 -0.0654  0.4091  0.0484
 3566SOL    HW210877   5.368   1.474   1.543  0.7418  0.5268  0.2696
 3567SOL     OW10878   8.006   0.309   0.499  0.1441  0.1692  0.7515
 3567SOL    HW110879   7.913   0.339   0.522 -0.6936 -0.6273 -1.3598
 3567SOL    HW210880   8.040   0.250   0.572 -0.8708  0.7037  1.6980
 3568SOL     OW10881   2.566   3.018   8.082  0.3047  0.8645 -0.0603
 3568SOL    HW110882   2.616   2.965   8.151 -0.9734  1.0010  1.0056
 3568SOL    HW210883   2.540   3.106   8.121  1.5892  1.9539 -1.5059
 3569SOL     OW10884   2.696   4.741   3.855  0.6031 -0.5626  0.3174
 3569SOL    HW110885   2.654   4.831   3.871  1.4669 -0.6033  3.6994
 3569SOL    HW210886   2.667   4.706   3.766 -1.5013  2.0821 -0.1869
 3570SOL     OW10887   1.560   0.086   4.176 -0.0202 -0.2961  0.0971
 3570SOL    HW110888   1.613   0.162   4.138  0.0166 -0.0980  0.5372
 3570SOL    HW210889   1.607   0.050   4.257  0.6085 -1.6112 -0.8186
 3571SOL     OW10890   7.599   6.327   0.951  0.2100 -0.4857 -0.1014
 3571SOL    HW110891   7.541   6.246   0.953 -1.2319  0.4934 -0.5239
 3571SOL    HW210892   7.632   6.342   0.858 -2.3659  1.2594 -0.8632
 3572SOL     OW10893   4.156   1.427   2.607 -0.0926  0.3769  0.7763
 3572SOL    HW110894   4.110   1.407   2.520 -0.5648 -0.9179  1.3022
 3572SOL    HW210895   4.230   1.493   2.591 -1.2926  1.5277 -0.3050
 3573SOL     OW10896   6.771   6.832   0.223 -0.0547 -0.5920  0.3048
 3573SOL    HW110897   6.699   6.899   0.242  0.0327 -1.0504  2.4913
 3573SOL    HW210898   6.761   6.799   0.129 -1.9215  0.2850  0.1383
 3574SOL     OW10899   3.238   2.920   2.447  0.7750  0.2278 -0.2848
 3574SOL    HW110900   3.186   3.005   2.461  0.4222 -0.0821  0.3074
 3574SOL    HW210901   3.314   2.938   2.386 -0.4072  0.5478 -1.7233
 3575SOL     OW10902   4.577   6.174   8.079  0.5835  0.2030  0.0342
 3575SOL    HW110903   4.617   6.265   8.093 -0.0067  0.3462  0.8544
 3575SOL    HW210904   4.582   6.151   7.982  0.9274  1.0224 -0.1573
 3576SOL     OW10905   0.983   2.253   7.487  0.1869  0.2857 -0.0255
 3576SOL    HW110906   1.006   2.350   7.473  0.0812  0.1930 -0.9150
 3576SOL    HW210907   0.975   2.234   7.585  0.9301  1.0077  0.1850
 3577SOL     OW10908   1.640   1.059   1.496 -0.2709 -0.5733  0.4896
 3577SOL    HW110909   1.701   1.039   1.420 -0.3175  1.3748 -0.1008
 3577SOL    HW210910   1.553   1.093   1.461 -1.1566 -1.8080  1.3747
 3578SOL     OW10911   8.413   8.563   2.381 -0.0122 -0.3710 -0.5055
 3578SOL    HW110912   8.321   8.527   2.397  0.2820 -1.3807 -0.9528
 3578SOL    HW210913   8.407   8.654   2.341 -0.8079 -0.2430 -0.1165
 3579SOL     OW10914   4.744   2.310   0.111  0.4528  0.1420 -0.3998
 3579SOL    HW110915   4.685   2.321   0.191 -0.4570 -0.9779 -0.8921
 3579SOL    HW210916   4.785   2.219   0.112  0.5165  0.1590 -1.1463
 3580SOL     OW10917   4.398   6.380   3.241 -0.3616  0.3864  0.3048
 3580SOL    HW110918   4.446   6.445   3.181  1.6287 -0.5797  0.7490
 3580SOL    HW210919   4.426   6.396   3.336  1.2718 -1.9208  0.2862
 3581SOL     OW10920   8.267   5.553   3.981  0.2016  0.0945 -0.8535
 3581SOL    HW110921   8.274   5.652   3.994  0.4281  0.0243 -0.3904
 3581SOL    HW210922   8.184   5.520   4.026 -0.0181  0.1133 -1.2484
 3582SOL     OW10923   3.321   7.017   7.140  0.3780 -0.3734 -0.4189
 3582SOL    HW110924   3.303   6.953   7.065 -0.7462 -1.6910  0.9214
 3582SOL    HW210925   3.238   7.070   7.158  0.0262 -1.3537  1.0376
 3583SOL     OW10926   3.592   6.020   4.427 -0.2664 -0.0345  0.1367
 3583SOL    HW110927   3.616   6.110   4.465 -0.9167 -0.0547  0.6059
 3583SOL    HW210928   3.627   5.948   4.487  1.3567 -0.1508 -0.8747
 3584SOL     OW10929   3.745   3.160   8.109 -0.1412 -0.7949  0.3965
 3584SOL    HW110930   3.718   3.180   8.204 -2.3906  1.1479 -0.5406
 3584SOL    HW210931   3.805   3.232   8.075  0.2563 -1.2234  0.1857
 3585SOL     OW10932   4.791   3.952   7.619 -0.3320  0.0860  0.2316
 3585SOL    HW110933   4.838   4.023   7.671  1.9950 -1.3650  0.2918
 3585SOL    HW210934   4.818   3.862   7.654 -2.7098 -0.8890 -0.2118
 3586SOL     OW10935   3.979   1.623   4.374 -0.5136 -0.4576 -0.1656
 3586SOL    HW110936   3.984   1.561   4.452 -0.0555 -0.4922 -0.2207
 3586SOL    HW210937   3.924   1.703   4.398 -0.3001 -0.4257  0.2222
 3587SOL     OW10938   7.703   3.533   5.990  0.3199  0.3603 -0.6077
 3587SOL    HW110939   7.734   3.627   5.999  1.3368  0.1411 -1.4780
 3587SOL    HW210940   7.781   3.475   5.966 -0.0024 -0.9592  1.3056
 3588SOL     OW10941   3.348   0.669   2.119  0.6505  0.3013  0.3874
 3588SOL    HW110942   3.337   0.729   2.040  2.1205 -0.0561 -0.1146
 3588SOL    HW210943   3.294   0.705   2.196 -1.1978  0.3853 -0.8828
 3589SOL     OW10944   8.300   0.535   1.920 -0.4340 -0.0658  0.2178
 3589SOL    HW110945   8.201   0.543   1.921 -0.4825 -0.4266 -0.6378
 3589SOL    HW210946   8.337   0.550   2.012 -1.1907  1.1958  0.3412
 3590SOL     OW10947   4.220   7.549   1.640 -0.4490 -0.4565  0.2011
 3590SOL    HW110948   4.268   7.464   1.621  0.0547 -0.0243 -0.5535
 3590SOL    HW210949   4.282   7.626   1.623 -1.5667  0.1375 -1.3899
 3591SOL     OW10950   2.844   6.336   5.622  0.0737 -0.4695  0.1844
 3591SOL    HW110951   2.825   6.273   5.698  0.6278 -0.1894  0.5647
 3591SOL    HW210952   2.943   6.347   5.613  0.0042 -0.4213 -0.5196
 3592SOL     OW10953   0.906   8.698   6.036  0.5981  0.1261 -0.3758
 3592SOL    HW110954   0.895   8.600   6.048  0.7810  0.2540  1.0713
 3592SOL    HW210955   0.951   8.717   5.949 -0.8274 -0.9757 -1.4061
 3593SOL     OW10956   5.075   7.826   3.038  0.5797 -0.1569  0.1793
 3593SOL    HW110957   5.038   7.870   2.956  1.1552  0.7925  0.4199
 3593SOL    HW210958   5.129   7.746   3.011  0.4463 -0.0790 -0.3362
 3594SOL     OW10959   1.887   6.619   2.912  0.0238  0.5359  0.6019
 3594SOL    HW110960   1.951   6.544   2.893  0.7777  1.4461 -0.5480
 3594SOL    HW210961   1.809   6.612   2.850 -0.3868  0.1672  1.1460
 3595SOL     OW10962   1.217   7.878   0.073 -0.0621  0.1327 -0.0997
 3595SOL    HW110963   1.268   7.796   0.101  3.2417  2.2785  0.7873
 3595SOL    HW210964   1.256   7.913  -0.012 -0.1509  1.7877  0.5149
 3596SOL     OW10965   4.430   3.688   3.036  0.2091  0.7478 -0.3971
 3596SOL    HW110966   4.357   3.746   3.074  0.6979 -0.5917  2.8837
 3596SOL    HW210967   4.517   3.737   3.039  0.3443  0.4464  0.8243
 3597SOL     OW10968   7.917   0.926   5.011 -0.1643  0.0955 -0.3532
 3597SOL    HW110969   7.944   0.841   5.055  1.1768  0.3236 -0.7130
 3597SOL    HW210970   7.822   0.918   4.980 -0.7600 -0.4887  1.4809
 3598SOL     OW10971   7.683   6.708   2.053  0.7250 -0.5202  0.5888
 3598SOL    HW110972   7.729   6.726   1.965  0.9111 -1.9230  0.3715
 3598SOL    HW210973   7.722   6.767   2.123  1.3582 -0.1578 -0.0489
 3599SOL     OW10974   6.780   4.300   5.823 -0.5656  0.6678  0.6874
 3599SOL    HW110975   6.741   4.391   5.807 -0.5901  0.4879 -0.3515
 3599SOL    HW210976   6.856   4.285   5.760 -1.6487 -0.6795 -0.3703
 3600SOL     OW10977   1.396   7.607   4.062  0.1745 -0.2680  0.1145
 3600SOL    HW110978   1.365   7.543   4.132 -0.0362 -1.8440 -1.3544
 3600SOL    HW210979   1.472   7.661   4.098  0.4516 -1.4368  1.3712
 3601SOL     OW10980   4.648   1.791   6.174 -0.1034  0.2248  0.5454
 3601SOL    HW110981   4.725   1.807   6.235 -0.0386  1.6012  0.1389
 3601SOL    HW210982   4.566   1.836   6.210 -0.0969  0.9416 -0.2941
 3602SOL     OW10983   1.461   1.805   5.454 -0.2278 -0.7080  0.3832
 3602SOL    HW110984   1.405   1.748   5.394 -0.4948 -0.3965  0.3317
 3602SOL    HW210985   1.543   1.754   5.482  0.0308 -0.7733 -0.4473
 3603SOL     OW10986   0.140   2.138   2.667 -0.2009 -0.3470  0.5854
 3603SOL    HW110987   0.116   2.204   2.597  1.1394  1.5028  1.7509
 3603SOL    HW210988   0.237   2.114   2.658  0.4315  1.0984  2.5737
 3604SOL     OW10989   5.288   8.792   5.616 -0.4294  0.4982 -0.0146
 3604SOL    HW110990   5.215   8.733   5.582 -0.6235  0.7349 -0.0111
 3604SOL    HW210991   5.248   8.869   5.666 -0.1696  0.4951  0.2008
 3605SOL     OW10992   5.884   1.078   6.855  0.0755 -0.0612  0.4355
 3605SOL    HW110993   5.832   0.999   6.887 -0.9935  0.0354 -0.9659
 3605SOL    HW210994   5.944   1.111   6.928 -0.4340 -1.3516  1.4635
 3606SOL     OW10995   8.323   7.068   6.823  0.2997  0.4520 -0.2917
 3606SOL    HW110996   8.325   7.018   6.736 -1.5649 -1.2233  0.5424
 3606SOL    HW210997   8.233   7.111   6.835  0.2954  0.1130  1.0613
 3607SOL     OW10998   0.397   4.271   5.248 -0.3903  0.2136  0.4945
 3607SOL    HW110999   0.350   4.278   5.336 -0.3562  0.0727  0.5228
 3607SOL    HW211000   0.460   4.348   5.239 -0.2707  0.1367  0.6668
 3608SOL     OW11001   5.488   4.795   0.161 -0.2833  0.2155  0.3765
 3608SOL    HW111002   5.576   4.774   0.118  0.3921  0.1573  1.7335
 3608SOL    HW211003   5.463   4.721   0.224 -1.4152  0.1363 -0.1371
 3609SOL     OW11004   3.309   2.170   0.944  0.4068  0.0849 -0.2054
 3609SOL    HW111005   3.238   2.238   0.926  1.8007  1.3323 -1.2884
 3609SOL    HW211006   3.277   2.105   1.013 -1.1601  1.5333  0.4956
 3610SOL     OW11007   0.169   0.109   4.602 -0.1010 -0.6506 -0.1252
 3610SOL    HW111008   0.259   0.117   4.645 -0.5238  1.0761  0.5200
 3610SOL    HW211009   0.180   0.078   4.508  1.2833  0.7891 -0.4734
 3611SOL     OW11010   6.410   4.244   2.500 -0.9288 -0.6511  0.5634
 3611SOL    HW111011   6.465   4.208   2.575 -0.0170 -1.1777 -0.3285
 3611SOL    HW211012   6.313   4.232   2.521 -0.7329 -4.5184 -0.0019
 3612SOL     OW11013   4.504   3.300   1.273  0.8619  0.5041  0.4481
 3612SOL    HW111014   4.542   3.324   1.184  1.9737  1.4678  1.1662
 3612SOL    HW211015   4.409   3.331   1.278  0.6587  0.0738 -0.5379
 3613SOL     OW11016   8.765   1.694   0.976 -0.6670  0.2555 -0.0667
 3613SOL    HW111017   8.721   1.729   1.059 -0.4994  0.3142 -0.0017
 3613SOL    HW211018   8.858   1.664   0.998 -0.7320 -0.0223 -0.1692
 3614SOL     OW11019   6.249   2.158   4.805  0.0713 -0.0354  0.3436
 3614SOL    HW111020   6.268   2.158   4.903 -0.7041  0.1276  0.5053
 3614SOL    HW211021   6.150   2.160   4.791  0.0866 -1.9674 -0.4245
 3615SOL     OW11022   5.539   6.916   4.304  0.1352  0.2752  1.0993
 3615SOL    HW111023   5.572   6.825   4.331  0.7711  0.4752  1.0031
 3615SOL    HW211024   5.559   6.981   4.377  0.8129  0.5854  0.6508
 3616SOL     OW11025   5.742   3.187   7.500  0.0734  0.2850 -0.3352
 3616SOL    HW111026   5.839   3.177   7.523  0.2904  1.0855 -0.8658
 3616SOL    HW211027   5.687   3.173   7.583  0.6444  0.0336  0.0137
 3617SOL     OW11028   2.075   1.480   6.423  0.2437  0.9468 -0.2195
 3617SOL    HW111029   2.172   1.479   6.400  0.2393  0.7551 -0.2279
 3617SOL    HW211030   2.055   1.559   6.481  0.8270 -0.2114  1.6216
 3618SOL     OW11031   2.925   6.245   0.465  0.6075 -0.2494  0.1037
 3618SOL    HW111032   2.950   6.150   0.446  0.7495  0.0302 -1.1911
 3618SOL    HW211033   2.835   6.247   0.509  1.9092 -1.1403  3.0535
 3619SOL     OW11034   5.723   5.800   1.420 -0.2847  0.1271 -0.2838
 3619SOL    HW111035   5.691   5.878   1.474  0.0006 -0.9040  1.4808
 3619SOL    HW211036   5.812   5.821   1.380 -1.4983  1.7411 -2.3266
 3620SOL     OW11037   5.110   3.558   4.094 -0.1430 -0.0774  0.1800
 3620SOL    HW111038   5.104   3.467   4.135  1.6551 -0.1781  0.2850
 3620SOL    HW211039   5.182   3.558   4.024  0.0070  1.3239  0.3150
 3621SOL     OW11040   0.057   8.062   5.141 -0.2751  0.1648  0.9321
 3621SOL    HW111041   0.154   8.086   5.142  0.0594 -1.0613  0.3084
 3621SOL    HW211042   0.020   8.076   5.049 -0.2026 -1.1222  0.6894
 3622SOL     OW11043   1.379   4.312   6.073  0.0361  0.5831  0.4709
 3622SOL    HW111044   1.372   4.212   6.079 -2.1436  0.7326  1.5377
 3622SOL    HW211045   1.352   4.353   6.160 -2.7992  2.1691 -1.0071
 3623SOL     OW11046   4.409   5.487   4.228 -0.1152 -0.5625 -0.4700
 3623SOL    HW111047   4.429   5.572   4.179  0.4534 -0.9629 -0.9333
 3623SOL    HW211048   4.480   5.419   4.209  0.0195 -0.7945  0.7531
 3624SOL     OW11049   2.140   6.549   2.626  0.0922 -0.4830  0.1049
 3624SOL    HW111050   2.174   6.639   2.656 -2.3652  0.7982 -0.6445
 3624SOL    HW211051   2.206   6.507   2.565  1.3081  0.8542  0.4434
 3625SOL     OW11052   3.070   8.206   5.546 -0.4091  0.1531  0.1839
 3625SOL    HW111053   3.141   8.268   5.513  0.0391  0.1749  1.1503
 3625SOL    HW211054   3.093   8.175   5.638 -1.6710  0.1759  0.5299
 3626SOL     OW11055   8.118   0.819   4.632  0.0812  0.0772 -0.3543
 3626SOL    HW111056   8.047   0.878   4.594 -0.1910 -0.6621 -1.0294
 3626SOL    HW211057   8.093   0.793   4.725 -0.5133 -0.1427 -0.5713
 3627SOL     OW11058   8.491   3.789   2.313  0.0625 -0.3565 -0.1719
 3627SOL    HW111059   8.468   3.694   2.332  0.4989 -0.4139  0.0885
 3627SOL    HW211060   8.420   3.830   2.256  1.1140 -1.5699 -2.4473
 3628SOL     OW11061   3.820   6.157   8.733 -0.2614  0.4564  0.3787
 3628SOL    HW111062   3.801   6.059   8.731  0.8349  0.2256  0.3832
 3628SOL    HW211063   3.916   6.172   8.759 -0.3928  1.5243  0.3088
 3629SOL     OW11064   3.347   5.451   6.079 -0.5367  0.7250 -0.2374
 3629SOL    HW111065   3.292   5.485   6.155 -1.9609  0.5302 -1.1400
 3629SOL    HW211066   3.382   5.360   6.101 -2.2586 -0.0072 -0.4073
 3630SOL     OW11067   0.286   2.539   3.920 -0.0139 -0.0034 -0.6278
 3630SOL    HW111068   0.364   2.591   3.884 -0.6557  0.7826 -0.9129
 3630SOL    HW211069   0.218   2.526   3.848 -0.7279  0.4527 -0.0637
 3631SOL     OW11070   8.615   7.898   5.148  0.1921 -0.2507 -0.3254
 3631SOL    HW111071   8.596   7.995   5.162  0.4081 -0.1956 -0.4082
 3631SOL    HW211072   8.703   7.888   5.101  1.2390 -0.5371  1.5911
 3632SOL     OW11073   3.732   0.501   0.067  0.8899 -0.3211 -0.0350
 3632SOL    HW111074   3.784   0.416   0.061  1.0969 -0.3267  1.4961
 3632SOL    HW211075   3.789   0.572   0.108 -0.6886 -0.7365  3.2070
 3633SOL     OW11076   8.217   1.322   5.449 -0.0211  0.0342 -0.7545
 3633SOL    HW111077   8.246   1.390   5.382  1.2607 -0.2223 -0.4826
 3633SOL    HW211078   8.259   1.234   5.427 -0.3239 -0.2736 -0.1297
 3634SOL     OW11079   7.472   1.689   3.801  0.2058 -0.1644  0.3541
 3634SOL    HW111080   7.527   1.643   3.870  0.3086 -0.2102  0.2438
 3634SOL    HW211081   7.490   1.787   3.804  1.1041 -0.2886 -0.3801
 3635SOL     OW11082   5.845   3.285   2.482  0.8415 -0.1522  0.1728
 3635SOL    HW111083   5.865   3.380   2.456  1.2766  0.2282  1.7562
 3635SOL    HW211084   5.769   3.250   2.427 -0.6639  1.7978  0.8788
 3636SOL     OW11085   4.913   2.110   4.933 -0.1313  0.6480  0.5682
 3636SOL    HW111086   4.883   2.033   4.989  0.0595  0.3522  0.2633
 3636SOL    HW211087   4.908   2.194   4.987  1.6792  0.1421  1.5860
 3637SOL     OW11088   2.097   1.332   3.337 -0.3648  0.3408 -0.2067
 3637SOL    HW111089   2.111   1.405   3.270  1.8082  1.6900  1.5952
 3637SOL    HW211090   2.119   1.244   3.295  0.9414  1.1484 -1.2956
 3638SOL     OW11091   0.446   6.291   1.938  0.7069  0.7028  0.0509
 3638SOL    HW111092   0.382   6.284   1.862 -1.7511  1.9294  1.8838
 3638SOL    HW211093   0.485   6.383   1.941  0.7161  0.6879  0.3626
 3639SOL     OW11094   6.986   0.653   3.915  0.0612 -0.0918  0.3126
 3639SOL    HW111095   6.987   0.725   3.846  0.4072 -1.3442 -1.0424
 3639SOL    HW211096   7.076   0.611   3.921 -0.2190 -0.6315  0.8335
 3640SOL     OW11097   8.020   0.855   0.333  0.2655  0.5169  0.3103
 3640SOL    HW111098   8.073   0.936   0.360  0.5246 -0.0589  1.6137
 3640SOL    HW211099   7.987   0.809   0.415  0.4280 -0.8978 -0.4008
 3641SOL     OW11100   1.185   2.022   2.014  0.8635  0.1580 -0.3746
 3641SOL    HW111101   1.283   2.038   2.010  0.5989  2.3402  0.5280
 3641SOL    HW211102   1.139   2.079   1.946  0.2793 -2.2688 -2.1773
 3642SOL     OW11103   7.229   2.803   0.891 -0.0103  0.0303  0.4484
 3642SOL    HW111104   7.315   2.777   0.847 -0.4917 -1.3197  0.2452
 3642SOL    HW211105   7.158   2.814   0.822 -0.1079  0.7185  0.6510
 3643SOL     OW11106   5.547   3.018   0.570  0.0747  0.3514  0.1277
 3643SOL    HW111107   5.449   3.037   0.579 -0.1956  0.7951 -2.7587
 3643SOL    HW211108   5.562   2.954   0.495  2.0675  1.0403 -0.1275
 3644SOL     OW11109   5.632   3.187   1.589  0.0752 -0.3976  0.0804
 3644SOL    HW111110   5.637   3.132   1.672  1.7001  1.7208  1.4867
 3644SOL    HW211111   5.573   3.267   1.604  0.8832  0.3479 -0.5580
 3645SOL     OW11112   1.734   4.487   4.583 -0.1302 -0.4395  0.5932
 3645SOL    HW111113   1.703   4.412   4.523  0.1074 -0.4462  0.4801
 3645SOL    HW211114   1.660   4.554   4.592  0.7679  1.0825 -2.0877
 3646SOL     OW11115   0.642   4.780   6.946  0.3434 -0.1565  0.2741
 3646SOL    HW111116   0.618   4.771   7.042  2.0651 -2.9505  0.5383
 3646SOL    HW211117   0.643   4.690   6.903  1.9192  0.7465 -1.7629
 3647SOL     OW11118   3.804   1.532   4.786  0.0762 -0.0267 -0.0536
 3647SOL    HW111119   3.816   1.544   4.884  0.5769  2.4489 -0.3379
 3647SOL    HW211120   3.714   1.568   4.759  0.3607  0.2814 -0.6128
 3648SOL     OW11121   5.614   4.152   6.275 -0.4637  0.1088 -0.7023
 3648SOL    HW111122   5.546   4.223   6.257  1.1473  1.5843 -1.2166
 3648SOL    HW211123   5.656   4.169   6.364  0.9830  0.7206 -1.4746
 3649SOL     OW11124   3.389   2.855   6.495 -0.1577 -0.4059 -0.5210
 3649SOL    HW111125   3.448   2.849   6.576 -1.4645 -1.3374  0.4136
 3649SOL    HW211126   3.437   2.904   6.422  1.2673 -0.0189  0.6235
 3650SOL     OW11127   7.508   7.267   8.242 -0.0146 -0.0367  0.6739
 3650SOL    HW111128   7.452   7.186   8.257 -0.9737  0.5473  0.3950
 3650SOL    HW211129   7.462   7.326   8.175  0.5343  0.8479  1.0639
 3651SOL     OW11130   5.405   8.839   6.302  0.2602  0.1368  0.2678
 3651SOL    HW111131   5.366   8.867   6.214 -0.2005  0.4718  0.5741
 3651SOL    HW211132   5.339   8.856   6.374  0.4038 -0.7044  0.6089
 3652SOL     OW11133   8.548   1.760   8.066  0.6411  0.2268 -0.6854
 3652SOL    HW111134   8.562   1.842   8.011 -0.9577  0.8885 -0.1490
 3652SOL    HW211135   8.506   1.689   8.010  0.1452  0.4822 -0.6437
 3653SOL     OW11136   3.691   7.464   2.030 -0.0889 -0.5505  0.0744
 3653SOL    HW111137   3.781   7.508   2.033  0.3367 -1.4206  0.2764
 3653SOL    HW211138   3.631   7.508   2.097  0.3290 -0.2736  0.2752
 3654SOL     OW11139   8.089   8.788   1.586 -0.4049 -0.1742 -0.4045
 3654SOL    HW111140   8.034   8.731   1.525  0.4675 -1.3113 -0.1655
 3654SOL    HW211141   8.029   8.850   1.636 -1.2848 -0.2352 -1.3542
 3655SOL     OW11142   4.914   5.589   3.600  0.2003 -0.0954 -0.2138
 3655SOL    HW111143   4.821   5.626   3.608  0.3016  0.4179 -1.2539
 3655SOL    HW211144   4.979   5.664   3.592  0.8630 -0.4108  1.7012
 3656SOL     OW11145   1.189   8.432   7.127  0.1339  0.0856 -0.1635
 3656SOL    HW111146   1.277   8.387   7.109 -0.0282 -0.3735  0.1710
 3656SOL    HW211147   1.171   8.499   7.055  1.6483  1.5425  0.7365
 3657SOL     OW11148   8.498   2.935   5.499 -0.2158 -0.1499  0.4052
 3657SOL    HW111149   8.468   3.021   5.457 -0.6603 -0.2146  0.5831
 3657SOL    HW211150   8.451   2.923   5.586 -1.4936 -1.4167 -0.4146
 3658SOL     OW11151   0.110   2.728   6.552  0.6345  0.3760  0.6028
 3658SOL    HW111152   0.057   2.674   6.487 -0.1913  1.4194  0.3785
 3658SOL    HW211153   0.122   2.677   6.637  0.1857 -0.2919  0.2702
 3659SOL     OW11154   0.314   7.882   6.945 -0.0752 -0.9789 -0.4101
 3659SOL    HW111155   0.297   7.921   6.855 -0.1680 -0.8215 -0.3263
 3659SOL    HW211156   0.369   7.946   6.999 -2.1116  0.1025  0.5283
 3660SOL     OW11157   1.710   2.667   8.328 -0.5712  0.6926 -0.8617
 3660SOL    HW111158   1.647   2.650   8.252 -0.4868  0.9555 -0.9905
 3660SOL    HW211159   1.800   2.691   8.292  0.1881 -1.7110 -0.7096
 3661SOL     OW11160   3.240   4.786   8.035 -0.2913  0.4119  0.2508
 3661SOL    HW111161   3.300   4.725   7.983 -0.9315 -0.2378  0.2637
 3661SOL    HW211162   3.240   4.877   7.992  1.0758  0.5760  0.5389
 3662SOL     OW11163   4.619   1.776   5.919  0.1980 -0.0133  0.2374
 3662SOL    HW111164   4.555   1.702   5.896  0.7881 -0.1583 -1.0397
 3662SOL    HW211165   4.642   1.771   6.016 -0.2847 -1.1090  0.3129
 3663SOL     OW11166   8.837   4.029   2.420  0.0937  0.5615 -0.4418
 3663SOL    HW111167   8.778   4.100   2.384  0.2585  0.9117 -0.0341
 3663SOL    HW211168   8.933   4.054   2.403  0.2796  1.6489  1.7936
 3664SOL     OW11169   4.403   4.322   0.566  0.3178 -0.5508  0.3717
 3664SOL    HW111170   4.461   4.401   0.586 -0.7297  0.0753  1.0566
 3664SOL    HW211171   4.386   4.271   0.651 -0.2362 -0.6377  0.2173
 3665SOL     OW11172   7.631   6.725   0.859  0.1575 -0.4446 -0.0986
 3665SOL    HW111173   7.548   6.686   0.818  1.4094 -0.7639 -2.4469
 3665SOL    HW211174   7.611   6.818   0.890 -0.7708 -0.0527 -1.7702
 3666SOL     OW11175   3.176   6.920   0.170 -0.0176 -0.1726  0.6162
 3666SOL    HW111176   3.149   6.841   0.115 -1.0018 -0.6681  1.7747
 3666SOL    HW211177   3.110   6.934   0.244 -0.2962  2.2019  0.0109
 3667SOL     OW11178   1.124   2.400   1.973 -0.3298 -0.5188 -0.2841
 3667SOL    HW111179   1.098   2.496   1.961 -0.0380 -0.0060  2.5708
 3667SOL    HW211180   1.209   2.394   2.026 -1.1509 -2.3633  0.9375
 3668SOL     OW11181   4.609   7.588   6.828 -0.0274 -0.5246  0.5316
 3668SOL    HW111182   4.548   7.666   6.837  2.3055  1.3718  0.6912
 3668SOL    HW211183   4.647   7.586   6.735 -0.3436 -1.7259  0.4091
 3669SOL     OW11184   3.463   4.030   6.692 -0.0794  0.1225  0.0935
 3669SOL    HW111185   3.407   3.998   6.768  2.0852  0.2247  1.8604
 3669SOL    HW211186   3.505   3.951   6.646 -0.8351  0.0959 -0.5664
 3670SOL     OW11187   0.955   3.911   0.739 -0.0927  0.5586 -0.0554
 3670SOL    HW111188   0.903   3.936   0.821  0.5020  1.1793  0.1479
 3670SOL    HW211189   0.964   3.991   0.680  1.7579  0.8697  0.5551
 3671SOL     OW11190   8.667   5.296   1.244 -0.3944  0.4064 -0.4538
 3671SOL    HW111191   8.751   5.254   1.210  0.8833  3.6907 -1.7349
 3671SOL    HW211192   8.689   5.369   1.309 -2.5092 -0.8835  1.9116
 3672SOL     OW11193   3.442   4.149   1.737  0.2030  0.5668 -0.0192
 3672SOL    HW111194   3.391   4.210   1.676 -1.1410 -0.7233 -0.2379
 3672SOL    HW211195   3.382   4.077   1.770  1.4626  0.0227  1.1729
 3673SOL     OW11196   5.284   6.409   6.872  0.0691  0.3186 -0.3807
 3673SOL    HW111197   5.377   6.442   6.855 -0.3744  0.9505 -1.6357
 3673SOL    HW211198   5.248   6.453   6.954  0.7481  0.3243 -0.0766
 3674SOL     OW11199   0.954   7.442   0.361  0.6023  0.1729  0.4663
 3674SOL    HW111200   1.008   7.526   0.362 -0.0098  0.5703  1.2566
 3674SOL    HW211201   0.914   7.428   0.271  0.5369  0.8322  0.3934
 3675SOL     OW11202   4.618   6.749   1.686  0.1362 -0.0550 -0.2025
 3675SOL    HW111203   4.700   6.787   1.728 -0.6059  0.2619  1.0424
 3675SOL    HW211204   4.559   6.823   1.655 -0.6876 -0.1789  0.9817
 3676SOL     OW11205   1.884   3.257   7.274 -0.1488 -0.2911 -0.1447
 3676SOL    HW111206   1.840   3.170   7.252 -0.8903 -0.5114  1.9841
 3676SOL    HW211207   1.946   3.283   7.200 -0.9228 -1.9473 -1.4236
 3677SOL     OW11208   3.362   0.137   1.317  0.0685 -0.0970 -0.4719
 3677SOL    HW111209   3.297   0.099   1.384  0.7585  0.8237  0.7533
 3677SOL    HW211210   3.362   0.237   1.324  0.3623  0.0027 -1.6807
 3678SOL     OW11211   5.594   1.053   3.550 -0.3557  0.7335 -0.0884
 3678SOL    HW111212   5.620   1.025   3.643 -0.4990  0.8288 -0.0187
 3678SOL    HW211213   5.546   1.141   3.555  0.2152  1.0667 -0.3115
 3679SOL     OW11214   4.152   8.269   7.937  0.1244  0.7707  0.1337
 3679SOL    HW111215   4.129   8.327   7.859 -0.4975  0.6658  0.2301
 3679SOL    HW211216   4.247   8.240   7.930 -0.3566 -0.5585 -1.4291
 3680SOL     OW11217   5.578   0.863   8.651  0.2192 -0.6395  0.0609
 3680SOL    HW111218   5.481   0.844   8.667  0.0103  0.7708  0.6369
 3680SOL    HW211219   5.601   0.953   8.688  1.4549 -0.3822 -1.2431
 3681SOL     OW11220   7.820   7.549   6.113 -0.2018 -0.5937  0.0627
 3681SOL    HW111221   7.767   7.624   6.072  0.2860  0.2793  0.9732
 3681SOL    HW211222   7.798   7.542   6.210  0.7305 -0.7455  0.2739
 3682SOL     OW11223   5.339   6.193   3.127  0.1165  0.3800  0.4140
 3682SOL    HW111224   5.374   6.131   3.057 -0.8786 -0.1753  0.3857
 3682SOL    HW211225   5.340   6.147   3.216  1.2902  1.0514  0.7534
 3683SOL     OW11226   2.233   7.317   6.899  0.2535  0.3161  0.3640
 3683SOL    HW111227   2.170   7.312   6.821  1.4576  0.9730 -0.6844
 3683SOL    HW211228   2.314   7.262   6.880  1.9942  2.9500 -0.2512
 3684SOL     OW11229   2.510   5.951   0.221  0.1273  0.4325 -0.0129
 3684SOL    HW111230   2.480   5.901   0.140 -0.2264  1.2177 -0.3817
 3684SOL    HW211231   2.536   6.044   0.195 -0.6878  0.9315  0.8733
 3685SOL     OW11232   8.428   8.551   7.032 -0.2216 -0.1078 -0.1501
 3685SOL    HW111233   8.520   8.589   7.026  0.1453 -0.9556  0.0618
 3685SOL    HW211234   8.361   8.626   7.031  0.4784  0.5267  0.0008
 3686SOL     OW11235   0.947   6.523   5.264  0.6158  0.5018  0.4109
 3686SOL    HW111236   1.038   6.491   5.289  1.2150  2.3065  0.6384
 3686SOL    HW211237   0.890   6.444   5.239  1.7861 -0.7898  1.6491
 3687SOL     OW11238   4.918   0.337   5.704  0.2903  0.2095 -0.2409
 3687SOL    HW111239   4.972   0.280   5.642 -0.5964 -1.0031  0.0523
 3687SOL    HW211240   4.830   0.359   5.661  1.8029  4.2347 -1.7582
 3688SOL     OW11241   1.615   6.439   8.557  0.7089 -0.2613  0.1103
 3688SOL    HW111242   1.566   6.504   8.498 -1.0702 -1.7874 -0.1796
 3688SOL    HW211243   1.655   6.367   8.501  1.2726 -0.3015  0.5605
 3689SOL     OW11244   6.844   7.295   5.498 -0.0167 -0.1456 -0.3524
 3689SOL    HW111245   6.882   7.308   5.407  0.1555 -0.7418 -0.3706
 3689SOL    HW211246   6.824   7.198   5.512 -2.3210  0.2431 -0.6482
 3690SOL     OW11247   3.930   7.791   4.098 -0.3580 -0.8349 -0.3697
 3690SOL    HW111248   3.957   7.874   4.049  2.0102 -0.4711  1.3759
 3690SOL    HW211249   4.005   7.725   4.095 -0.6090 -1.2692  1.7084
 3691SOL     OW11250   5.868   2.074   2.937 -0.6105 -0.1245 -0.0281
 3691SOL    HW111251   5.891   1.998   2.998 -0.6353  1.7889  2.5369
 3691SOL    HW211252   5.783   2.117   2.967 -1.8033 -0.3736 -2.7716
 3692SOL     OW11253   2.862   8.416   5.271  0.6610  0.2741 -0.2493
 3692SOL    HW111254   2.766   8.442   5.284 -0.0535 -1.9498 -0.6531
 3692SOL    HW211255   2.919   8.465   5.337 -0.3063  3.8135 -1.8549
 3693SOL     OW11256   5.324   0.954   5.080  0.2905 -0.6698  0.2253
 3693SOL    HW111257   5.316   0.926   4.984  0.5578  0.9479 -0.3052
 3693SOL    HW211258   5.421   0.960   5.105  0.4600  2.6059 -0.6553
 3694SOL     OW11259   5.820   4.299   0.006 -1.0139  0.2300 -0.2533
 3694SOL    HW111260   5.876   4.295  -0.077 -2.0707  1.9350 -1.1344
 3694SOL    HW211261   5.842   4.383   0.057  0.3580 -1.2957  1.8098
 3695SOL     OW11262   7.405   0.936   1.368 -0.1756  0.1075  0.6015
 3695SOL    HW111263   7.423   1.013   1.430 -0.1775 -0.1038  0.8667
 3695SOL    HW211264   7.488   0.883   1.355 -0.2313  0.0210  0.6007
 3696SOL     OW11265   0.930   7.942   5.353 -0.6422  0.2771  0.2193
 3696SOL    HW111266   0.955   7.997   5.433  1.5098  0.2775 -0.3816
 3696SOL    HW211267   0.881   7.860   5.383  0.2618  0.1949  1.5806
 3697SOL     OW11268   7.447   7.366   3.601 -0.0023 -0.1321  0.5997
 3697SOL    HW111269   7.519   7.313   3.645  0.7229  0.8644  0.6456
 3697SOL    HW211270   7.470   7.463   3.604 -0.2395  0.0395 -1.3833
 3698SOL     OW11271   2.740   8.490   8.466 -0.0967 -0.2436  0.7005
 3698SOL    HW111272   2.799   8.510   8.544 -2.0038 -1.6195  2.6081
 3698SOL    HW211273   2.655   8.543   8.474 -0.6252 -0.9583 -0.0417
 3699SOL     OW11274   3.362   2.136   2.339  0.0583  0.3447 -0.4059
 3699SOL    HW111275   3.290   2.077   2.374 -1.8739  1.6995 -1.8686
 3699SOL    HW211276   3.404   2.186   2.415 -2.8592  1.9613  0.2865
 3700SOL     OW11277   2.195   5.708   3.746  0.5884  0.0423  0.0442
 3700SOL    HW111278   2.258   5.631   3.756  0.7953  0.1729 -0.2405
 3700SOL    HW211279   2.211   5.773   3.820  0.5507 -0.0909  0.1706
 3701SOL     OW11280   7.930   8.700   0.079  0.2321  0.4675  0.1552
 3701SOL    HW111281   7.887   8.778   0.031 -0.0101  0.9395  1.1199
 3701SOL    HW211282   8.028   8.700   0.060  0.3229  1.3241  0.5386
 3702SOL     OW11283   2.625   2.297   1.594  0.0952 -0.3523 -0.1585
 3702SOL    HW111284   2.548   2.314   1.655 -1.0428 -0.6604 -1.4525
 3702SOL    HW211285   2.611   2.210   1.547  1.1060 -0.2741 -0.6298
 3703SOL     OW11286   2.816   2.172   6.140  0.6146 -0.7081 -0.2026
 3703SOL    HW111287   2.759   2.097   6.106  1.0120 -0.6614 -1.0094
 3703SOL    HW211288   2.861   2.145   6.225 -0.3589 -0.8550  0.2754
 3704SOL     OW11289   6.300   2.368   7.452  0.2881  0.2360  0.0043
 3704SOL    HW111290   6.292   2.453   7.399  0.1831  1.4919  1.9453
 3704SOL    HW211291   6.213   2.318   7.447  0.7082 -0.3890 -2.0847
 3705SOL     OW11292   1.732   3.404   3.701  0.2256 -0.3979 -0.0347
 3705SOL    HW111293   1.645   3.357   3.718 -0.2319  0.2217 -0.6078
 3705SOL    HW211294   1.798   3.377   3.771 -0.7816  0.0115  1.1167
 3706SOL     OW11295   2.374   0.751   7.568 -0.2036 -0.4655  0.4905
 3706SOL    HW111296   2.397   0.667   7.617  0.1207  0.2509  1.6189
 3706SOL    HW211297   2.296   0.734   7.508  0.5157 -1.8211 -0.0930
 3707SOL     OW11298   6.817   2.021   3.077 -0.5612  0.0490  0.2124
 3707SOL    HW111299   6.878   2.067   3.012 -1.1559 -0.1271 -0.4889
 3707SOL    HW211300   6.869   1.993   3.157  0.5175 -1.0026 -0.8047
 3708SOL     OW11301   4.875   1.125   3.929  0.0135  0.2697  0.5668
 3708SOL    HW111302   4.860   1.062   4.005 -1.3236  0.0334  0.1290
 3708SOL    HW211303   4.842   1.084   3.844  0.4419  0.9892  0.0384
 3709SOL     OW11304   5.340   1.905   1.732 -0.0044 -0.1396 -0.5556
 3709SOL    HW111305   5.247   1.873   1.749 -0.0714 -0.3934 -1.3588
 3709SOL    HW211306   5.374   1.866   1.646  1.4998 -1.4945  0.5731
 3710SOL     OW11307   8.318   7.751   1.979  0.6954  0.1044 -0.0002
 3710SOL    HW111308   8.245   7.816   1.960 -0.6400 -1.0627  1.0072
 3710SOL    HW211309   8.347   7.707   1.893  0.3374  0.6920 -0.4237
 3711SOL     OW11310   5.700   5.061   7.609 -0.6572 -0.1129  0.0066
 3711SOL    HW111311   5.637   5.098   7.540 -1.0778  0.4861  0.7031
 3711SOL    HW211312   5.690   5.113   7.694 -1.9111 -2.3468  1.3109
 3712SOL     OW11313   1.618   8.260   7.803 -0.4028  0.1359  0.0155
 3712SOL    HW111314   1.543   8.214   7.757 -0.4234 -0.1133  0.2935
 3712SOL    HW211315   1.704   8.237   7.758 -0.3747 -0.4412  0.3441
 3713SOL     OW11316   1.215   6.046   0.903  0.4841 -0.0726  0.9188
 3713SOL    HW111317   1.262   6.113   0.846  0.7576 -1.9085 -1.1227
 3713SOL    HW211318   1.127   6.083   0.932  1.0308  1.4988  0.6392
 3714SOL     OW11319   7.137   1.059   2.581 -0.6621  0.3963 -0.2847
 3714SOL    HW111320   7.041   1.032   2.574 -1.6137  3.5423 -0.9160
 3714SOL    HW211321   7.151   1.146   2.534  1.8029  1.6739  2.4938
 3715SOL     OW11322   3.903   4.973   4.505  0.0070 -0.1299  0.0014
 3715SOL    HW111323   3.976   4.905   4.510  0.4391  0.3813  0.8317
 3715SOL    HW211324   3.936   5.054   4.456 -0.8396 -0.9016 -1.9456
 3716SOL     OW11325   7.553   3.531   0.330 -0.2559 -0.1753  0.1163
 3716SOL    HW111326   7.565   3.437   0.297  0.0806 -0.1449  0.1541
 3716SOL    HW211327   7.550   3.530   0.430 -2.8559 -0.4738  0.1126
 3717SOL     OW11328   4.761   8.523   2.040 -0.5057 -0.1448 -0.7829
 3717SOL    HW111329   4.672   8.510   1.996 -0.3919 -0.9122 -0.8005
 3717SOL    HW211330   4.802   8.434   2.058  0.3344  0.2118 -0.9210
 3718SOL     OW11331   6.309   5.974   0.014  0.0187 -0.4030 -0.2917
 3718SOL    HW111332   6.327   6.035   0.092 -1.0928  2.0390 -1.8152
 3718SOL    HW211333   6.235   5.911   0.038  0.3109 -0.3193  0.9159
 3719SOL     OW11334   8.632   2.977   3.842  0.1732  0.0186 -0.2862
 3719SOL    HW111335   8.558   3.045   3.841 -0.0665 -0.2060 -2.7549
 3719SOL    HW211336   8.679   2.978   3.754 -0.4228 -3.6268 -0.7793
 3720SOL     OW11337   6.345   5.055   8.278 -0.6520  0.6547 -0.4966
 3720SOL    HW111338   6.444   5.066   8.289 -0.8050  2.0557 -0.2947
 3720SOL    HW211339   6.304   5.144   8.256 -1.8962  0.1426 -0.3292
 3721SOL     OW11340   5.957   6.187   3.426 -0.0384 -0.1520 -0.5980
 3721SOL    HW111341   6.007   6.214   3.508  0.1327 -0.8532 -0.4666
 3721SOL    HW211342   5.895   6.112   3.448 -1.1421  0.6882 -0.7660
 3722SOL     OW11343   7.298   1.250   0.623 -0.9008 -0.3846 -0.2182
 3722SOL    HW111344   7.316   1.296   0.536 -0.8641 -1.9538 -1.0991
 3722SOL    HW211345   7.373   1.186   0.643 -1.9060 -1.5965 -0.1517
 3723SOL     OW11346   7.702   7.932   7.986  0.1100 -0.0117 -0.3872
 3723SOL    HW111347   7.731   8.010   8.041 -1.5752  0.7552 -0.5191
 3723SOL    HW211348   7.711   7.955   7.889  0.7725 -0.4506 -0.4337
 3724SOL     OW11349   8.795   3.827   1.178 -0.7460 -0.7877  0.0151
 3724SOL    HW111350   8.752   3.754   1.231 -0.7477  0.7276  2.2322
 3724SOL    HW211351   8.882   3.852   1.221 -0.8221  0.6258 -0.6088
 3725SOL     OW11352   3.050   2.838   1.688 -0.2004  0.2044  0.1541
 3725SOL    HW111353   3.138   2.790   1.688 -0.6228 -0.6080  0.9466
 3725SOL    HW211354   3.049   2.906   1.616  0.6581 -0.5726 -0.6158
 3726SOL     OW11355   1.902   0.229   6.914 -0.0647  0.2764 -0.0913
 3726SOL    HW111356   1.820   0.274   6.948 -0.5986 -0.3401 -0.5451
 3726SOL    HW211357   1.880   0.176   6.833  0.4461 -1.1982  0.6957
 3727SOL     OW11358   0.521   6.896   4.056  0.1588 -0.2788  0.0272
 3727SOL    HW111359   0.611   6.903   4.015  0.4291  4.5165  0.8773
 3727SOL    HW211360   0.529   6.893   4.156 -0.5893  1.0909  0.1462
 3728SOL     OW11361   8.257   1.939   6.449 -0.2757  0.0023  0.0549
 3728SOL    HW111362   8.200   1.881   6.390  1.0209  1.9208 -3.3771
 3728SOL    HW211363   8.353   1.913   6.438  0.3260  2.5518 -1.5171
 3729SOL     OW11364   7.477   1.838   8.124 -0.0500 -0.1507  0.1623
 3729SOL    HW111365   7.572   1.829   8.095  0.5669  0.8245  1.7651
 3729SOL    HW211366   7.460   1.777   8.202 -0.5971  0.0376  0.1940
 3730SOL     OW11367   5.278   7.567   2.196 -0.3016  0.7887 -0.1704
 3730SOL    HW111368   5.221   7.494   2.235 -0.9642  1.8066  0.8317
 3730SOL    HW211369   5.358   7.527   2.152 -0.3088 -0.5059  0.9361
 3731SOL     OW11370   4.428   5.789   2.457 -0.1387 -0.2479 -0.1792
 3731SOL    HW111371   4.337   5.798   2.417 -0.0718  1.2730 -0.0397
 3731SOL    HW211372   4.482   5.724   2.403 -0.4748  0.7805 -1.8362
 3732SOL     OW11373   7.192   6.675   3.328 -0.5281  0.3394 -1.2269
 3732SOL    HW111374   7.145   6.745   3.275 -0.1206  1.0934 -0.6225
 3732SOL    HW211375   7.275   6.714   3.369 -0.4174 -0.4279 -0.6805
 3733SOL     OW11376   5.637   2.211   4.667 -0.1064 -0.5736 -0.5054
 3733SOL    HW111377   5.681   2.276   4.605  0.3654 -0.5899 -0.1904
 3733SOL    HW211378   5.663   2.118   4.644  0.3739 -0.5581 -0.0560
 3734SOL     OW11379   7.228   2.987   2.660 -0.1118  0.9193  0.2795
 3734SOL    HW111380   7.261   2.942   2.577 -2.2534 -2.3360  1.0125
 3734SOL    HW211381   7.136   2.953   2.682 -0.0659  2.4802  3.4209
 3735SOL     OW11382   1.375   2.010   3.883 -0.8766 -0.1042  0.5512
 3735SOL    HW111383   1.282   2.045   3.871 -0.1000  1.4885 -1.4550
 3735SOL    HW211384   1.374   1.910   3.878 -2.2109 -0.0491 -2.2243
 3736SOL     OW11385   3.997   8.647   6.287 -0.3867 -0.2446 -0.4475
 3736SOL    HW111386   4.058   8.706   6.339 -1.1760  1.4171 -1.3264
 3736SOL    HW211387   3.903   8.660   6.319 -0.7702  0.1720 -1.6947
 3737SOL     OW11388   4.094   7.309   3.211  0.1148  0.5298 -0.4618
 3737SOL    HW111389   4.088   7.401   3.172  0.4943  0.5834 -0.4041
 3737SOL    HW211390   4.065   7.312   3.306 -0.0557  0.5517 -0.5133
 3738SOL     OW11391   8.700   2.130   3.335  0.0964  0.1578 -0.0663
 3738SOL    HW111392   8.787   2.138   3.384 -0.7810 -0.1013  1.6030
 3738SOL    HW211393   8.674   2.219   3.297  0.5903  0.4619  0.3022
 3739SOL     OW11394   2.067   2.752   1.140 -0.1652  0.3805  0.0430
 3739SOL    HW111395   2.100   2.840   1.174 -0.2280  0.5226 -0.2589
 3739SOL    HW211396   2.003   2.712   1.205 -0.0594  0.5112  0.2273
 3740SOL     OW11397   2.301   2.052   5.486 -0.1509 -0.2729 -0.4339
 3740SOL    HW111398   2.354   2.090   5.562 -1.0583 -0.3803  0.2797
 3740SOL    HW211399   2.261   2.127   5.433  1.2967 -0.1764 -1.4202
 3741SOL     OW11400   7.048   6.926   4.117 -0.1069 -0.0773  0.0233
 3741SOL    HW111401   7.132   6.977   4.135 -1.3100  2.3723 -0.9024
 3741SOL    HW211402   7.070   6.829   4.109  2.3503  0.2576  1.4912
 3742SOL     OW11403   7.981   2.120   2.579 -0.2845 -0.2332  0.6181
 3742SOL    HW111404   7.947   2.207   2.617 -0.5861  0.5712 -1.3438
 3742SOL    HW211405   8.055   2.139   2.515 -1.6433 -1.1567 -1.3507
 3743SOL     OW11406   2.811   3.718   8.013 -0.0223  0.2228  0.6925
 3743SOL    HW111407   2.880   3.790   8.003  1.5334 -1.1370  1.2219
 3743SOL    HW211408   2.723   3.751   7.979  0.3908  2.7139  1.8281
 3744SOL     OW11409   0.274   8.455   7.860  0.0536 -0.2333 -0.2899
 3744SOL    HW111410   0.368   8.453   7.824  0.3883 -0.6523  0.5654
 3744SOL    HW211411   0.224   8.374   7.829 -0.1940  0.2396 -1.1553
 3745SOL     OW11412   8.247   1.525   3.711 -0.2471 -0.4443 -0.0169
 3745SOL    HW111413   8.232   1.613   3.757  1.0877  0.2186 -0.7854
 3745SOL    HW211414   8.342   1.519   3.681  0.3235 -3.1333  1.9714
 3746SOL     OW11415   0.115   7.566   3.448 -0.1199 -0.3914  0.3103
 3746SOL    HW111416   0.088   7.497   3.381 -0.1090 -1.0873  1.0147
 3746SOL    HW211417   0.108   7.528   3.540 -1.1284  0.8835  0.7914
 3747SOL     OW11418   2.205   5.442   4.481  0.0941  0.4513  0.3241
 3747SOL    HW111419   2.191   5.465   4.578  0.9056 -1.4484  0.9366
 3747SOL    HW211420   2.116   5.424   4.439 -0.1526 -0.9123  1.3384
 3748SOL     OW11421   1.948   1.196   1.872 -0.2415  0.4268  0.1719
 3748SOL    HW111422   1.885   1.165   1.943 -1.4282  1.0451 -0.5794
 3748SOL    HW211423   1.959   1.125   1.803  1.2968 -0.3678  1.1796
 3749SOL     OW11424   4.645   7.113   8.059  0.0652 -0.0902 -0.2549
 3749SOL    HW111425   4.692   7.201   8.062  1.4230 -0.7237 -1.7410
 3749SOL    HW211426   4.709   7.040   8.082 -1.3393 -0.6583  2.2623
 3750SOL     OW11427   6.429   8.495   8.399 -0.2784  0.1878 -0.1177
 3750SOL    HW111428   6.516   8.458   8.368 -0.9790 -0.9925 -0.7307
 3750SOL    HW211429   6.442   8.591   8.426  1.5556 -0.4062  1.4214
 3751SOL     OW11430   5.975   4.860   3.140  0.1483 -1.2692 -0.1954
 3751SOL    HW111431   5.891   4.833   3.188  0.1792 -2.6955 -0.9015
 3751SOL    HW211432   6.047   4.878   3.208 -0.6167 -0.3644  0.3996
 3752SOL     OW11433   5.261   3.884   7.722 -0.1100 -0.3966 -0.6527
 3752SOL    HW111434   5.202   3.928   7.789  0.2056 -0.3407 -0.4054
 3752SOL    HW211435   5.298   3.799   7.760  1.5053  0.5234 -0.0310
 3753SOL     OW11436   5.405   3.760   4.274 -0.2681 -0.2733  0.1226
 3753SOL    HW111437   5.472   3.768   4.200  2.0178 -1.0461  1.9556
 3753SOL    HW211438   5.351   3.678   4.262 -0.2642 -0.1345 -0.9273
 3754SOL     OW11439   3.206   4.457   7.748  0.4142  0.2181 -0.2844
 3754SOL    HW111440   3.189   4.531   7.684  2.3359  0.0142 -1.1237
 3754SOL    HW211441   3.175   4.370   7.708  1.8468  0.0519 -1.1456
 3755SOL     OW11442   4.768   5.732   5.465 -0.0834  0.0738  0.3096
 3755SOL    HW111443   4.753   5.777   5.377 -0.2133 -1.7782 -0.6622
 3755SOL    HW211444   4.743   5.635   5.458 -0.9320  0.0576  2.6341
 3756SOL     OW11445   1.657   8.655   5.245 -0.1272 -0.0664  0.0040
 3756SOL    HW111446   1.711   8.684   5.166 -1.3152  0.1862 -0.7407
 3756SOL    HW211447   1.586   8.590   5.215 -0.1813 -0.4680  0.9684
 3757SOL     OW11448   1.916   4.202   0.199 -0.3710  0.3786 -0.3469
 3757SOL    HW111449   1.859   4.168   0.274  0.5685 -0.3179  0.0775
 3757SOL    HW211450   1.866   4.272   0.148 -1.0280  0.8870  0.9377
 3758SOL     OW11451   8.075   4.020   6.052  0.2304  0.3563  0.1666
 3758SOL    HW111452   8.025   3.977   5.976  0.6954  3.3448 -2.0311
 3758SOL    HW211453   8.168   3.984   6.055  0.2340  0.2590 -0.7664
 3759SOL     OW11454   5.606   7.100   5.555  0.3755 -0.1852  0.5251
 3759SOL    HW111455   5.682   7.076   5.494  0.9368 -0.6014  1.3688
 3759SOL    HW211456   5.539   7.155   5.505  0.9131 -0.3587 -0.4108
 3760SOL     OW11457   1.241   3.292   0.880  0.2200 -0.6353 -0.0498
 3760SOL    HW111458   1.178   3.223   0.917 -0.5268  1.1137  2.1593
 3760SOL    HW211459   1.190   3.368   0.842  1.0415 -0.6686 -1.2903
 3761SOL     OW11460   5.328   0.975   8.423 -0.5056 -0.0954 -0.6476
 3761SOL    HW111461   5.364   1.035   8.352 -0.1843  2.1726  1.2887
 3761SOL    HW211462   5.404   0.938   8.477 -0.8027  0.9616  0.5625
 3762SOL     OW11463   0.247   2.992   8.821 -0.0655 -0.1799  0.1472
 3762SOL    HW111464   0.192   2.966   8.742 -0.1256 -2.3038  0.8251
 3762SOL    HW211465   0.192   3.050   8.881 -2.2745 -3.3355  1.4918
 3763SOL     OW11466   3.951   2.253   2.730 -0.0088  0.0652  0.6611
 3763SOL    HW111467   3.864   2.301   2.742  1.2189  3.3715 -2.2359
 3763SOL    HW211468   4.019   2.290   2.794  0.1935  0.0046  0.4813
 3764SOL     OW11469   0.031   7.899   6.164 -0.7613 -0.3687 -0.4299
 3764SOL    HW111470   0.101   7.918   6.096 -1.6705 -0.6567 -1.4676
 3764SOL    HW211471  -0.055   7.940   6.136 -0.6660  1.4389  1.6519
 3765SOL     OW11472   2.547   0.150   4.607 -0.1409 -0.6962  0.3268
 3765SOL    HW111473   2.541   0.244   4.573 -1.7853 -1.4503 -1.7195
 3765SOL    HW211474   2.632   0.138   4.657  1.0172  1.3968 -0.9880
 3766SOL     OW11475   4.894   5.721   3.907  0.5482 -0.0635 -0.1572
 3766SOL    HW111476   4.845   5.641   3.940 -0.0939  0.4191  0.0641
 3766SOL    HW211477   4.991   5.712   3.930  0.4516 -0.6869  0.0277
 3767SOL     OW11478   1.031   2.395   1.000 -0.2303  0.0611  0.4436
 3767SOL    HW111479   1.064   2.487   1.020  1.0984  0.4126 -2.8183
 3767SOL    HW211480   1.101   2.328   1.026  0.0641  0.2280  0.0893
 3768SOL     OW11481   0.129   6.761   7.682 -0.6328  0.0653 -0.5440
 3768SOL    HW111482   0.160   6.718   7.767 -1.0022  0.8029 -0.0241
 3768SOL    HW211483   0.106   6.857   7.700  1.2937  0.8509 -1.9027
 3769SOL     OW11484   8.312   8.447   8.518  0.1221 -0.1431  0.3578
 3769SOL    HW111485   8.280   8.473   8.427 -0.5341 -1.0806  0.3054
 3769SOL    HW211486   8.297   8.349   8.531  0.0269  0.0283  1.5577
 3770SOL     OW11487   2.127   1.385   5.849 -0.1257 -0.0285  0.5807
 3770SOL    HW111488   2.129   1.300   5.796  1.7344 -0.5926  1.4706
 3770SOL    HW211489   2.174   1.457   5.797 -1.9494  0.5726 -0.2977
 3771SOL     OW11490   8.098   1.611   0.177  0.1114  0.2581 -0.3969
 3771SOL    HW111491   8.161   1.540   0.145 -0.9763 -0.7125 -0.4580
 3771SOL    HW211492   8.138   1.657   0.257  0.9521 -0.2368 -0.5168
 3772SOL     OW11493   4.113   4.223   8.840  0.1490  1.0149  0.0648
 3772SOL    HW111494   4.136   4.204   8.745  0.6217  2.8453 -0.2056
 3772SOL    HW211495   4.031   4.170   8.866 -1.2761  2.0858 -2.0003
 3773SOL     OW11496   2.956   5.519   0.267 -0.0079 -0.2335  0.0113
 3773SOL    HW111497   2.995   5.481   0.182 -0.7685 -0.2891 -0.3190
 3773SOL    HW211498   2.868   5.475   0.286 -1.7737  2.4870 -1.3139
 3774SOL     OW11499   7.907   4.479   7.563  0.4369 -0.0106 -0.1413
 3774SOL    HW111500   7.812   4.449   7.568  0.3388  0.4666  1.4685
 3774SOL    HW211501   7.967   4.400   7.549 -0.1686 -0.3378 -0.9278
 3775SOL     OW11502   6.381   6.640   6.871 -0.0567 -0.7090  0.3277
 3775SOL    HW111503   6.317   6.600   6.805  0.2156  0.1420 -0.4722
 3775SOL    HW211504   6.416   6.568   6.931 -0.1175 -1.5546 -0.6128
 3776SOL     OW11505   4.405   3.939   2.862  0.5238  0.6788 -0.3186
 3776SOL    HW111506   4.323   3.949   2.805  1.0397  0.3465 -1.1351
 3776SOL    HW211507   4.460   3.862   2.829  0.4721  0.0088  1.0928
 3777SOL     OW11508   3.565   2.486   8.085 -0.3742 -0.3259 -0.8838
 3777SOL    HW111509   3.532   2.413   8.144  0.2215  0.6634  0.7418
 3777SOL    HW211510   3.627   2.447   8.016 -1.5043 -1.5694 -1.2509
 3778SOL     OW11511   7.827   5.601   1.796  0.0362 -0.2677  0.3826
 3778SOL    HW111512   7.786   5.531   1.738 -0.6327 -0.3343  0.9241
 3778SOL    HW211513   7.854   5.561   1.883  1.0098 -0.1596  0.1398
 3779SOL     OW11514   6.560   0.135   1.369  0.5832  0.4160  0.6110
 3779SOL    HW111515   6.572   0.158   1.465 -0.8991  1.2655  0.6246
 3779SOL    HW211516   6.533   0.039   1.361 -0.4338  0.6431  1.1542
 3780SOL     OW11517   1.047   8.523   5.772  0.5600  1.3239  0.1421
 3780SOL    HW111518   1.003   8.488   5.854  1.2647 -0.3147 -0.1313
 3780SOL    HW211519   0.980   8.570   5.714 -0.6447 -0.3279  0.1438
 3781SOL     OW11520   1.440   1.084   3.901 -0.6346  0.5702 -0.2143
 3781SOL    HW111521   1.435   1.184   3.897 -0.7827  0.5654 -0.1709
 3781SOL    HW211522   1.440   1.047   3.808  2.0685  0.7162 -0.3522
 3782SOL     OW11523   4.027   8.136   6.756  0.2756 -0.3928  0.2697
 3782SOL    HW111524   3.974   8.059   6.720  1.9585 -1.7350  0.5363
 3782SOL    HW211525   4.042   8.123   6.854  1.5686 -0.3586  0.0907
 3783SOL     OW11526   3.992   6.664   8.809 -0.1578  0.6523  0.4246
 3783SOL    HW111527   3.947   6.615   8.735  0.1735  0.0268  0.6289
 3783SOL    HW211528   4.055   6.731   8.771 -0.0319  0.3760  0.1412
 3784SOL     OW11529   6.811   8.487   3.849  0.4251  0.2301  0.5101
 3784SOL    HW111530   6.754   8.449   3.776  0.1313  1.5695  0.0211
 3784SOL    HW211531   6.835   8.414   3.913  1.1745 -1.1012 -1.2075
 3785SOL     OW11532   3.802   3.754   4.298 -0.5124 -0.2494  0.2522
 3785SOL    HW111533   3.819   3.754   4.199 -3.3653  1.8191 -0.3692
 3785SOL    HW211534   3.882   3.790   4.346 -0.5978  3.1385 -1.7957
 3786SOL     OW11535   2.829   8.034   4.334  0.1141  0.9966  0.0594
 3786SOL    HW111536   2.769   8.007   4.259 -0.5957 -1.6540  1.4635
 3786SOL    HW211537   2.774   8.064   4.412  0.6975  0.7261  0.5859
 3787SOL     OW11538   6.953   0.756   1.124 -0.2741 -0.7553 -0.7695
 3787SOL    HW111539   6.966   0.693   1.047  0.4211 -2.3011  0.5356
 3787SOL    HW211540   6.972   0.707   1.209 -3.1602  0.2514  0.5734
 3788SOL     OW11541   3.930   5.927   0.218  0.0233 -0.1655 -0.0413
 3788SOL    HW111542   3.887   5.909   0.130  1.2623 -0.2231 -0.6520
 3788SOL    HW211543   3.983   6.012   0.213  2.5565 -1.6400 -0.3201
 3789SOL     OW11544   4.394   1.766   8.589 -0.0659  0.4017  0.0546
 3789SOL    HW111545   4.411   1.686   8.532  0.6659  0.1069  0.6596
 3789SOL    HW211546   4.325   1.824   8.546  0.2760  0.0611 -0.9920
 3790SOL     OW11547   0.151   1.343   7.919 -0.2378 -0.4420 -0.0150
 3790SOL    HW111548   0.238   1.337   7.969 -0.0109 -2.3178 -0.5616
 3790SOL    HW211549   0.081   1.382   7.979 -0.2820 -3.7116  2.2928
 3791SOL     OW11550   4.864   0.788   7.018  0.0230  0.1138  0.7068
 3791SOL    HW111551   4.810   0.714   7.058  1.4706 -1.2055  0.3276
 3791SOL    HW211552   4.803   0.862   6.989 -1.6161 -1.4491 -0.0473
 3792SOL     OW11553   4.539   5.242   4.133  0.9199 -0.2620  0.5632
 3792SOL    HW111554   4.560   5.261   4.037  0.5247 -0.5094  0.4265
 3792SOL    HW211555   4.623   5.214   4.179  1.1341 -0.0440  0.3171
 3793SOL     OW11556   0.495   2.513   0.572  0.7194 -0.3954  0.0341
 3793SOL    HW111557   0.463   2.473   0.658  0.9262  0.2934  0.4375
 3793SOL    HW211558   0.446   2.598   0.555  0.6499 -0.5538 -0.5557
 3794SOL     OW11559   8.781   6.688   4.331  0.3899  0.1855 -0.6154
 3794SOL    HW111560   8.831   6.762   4.288  0.5371  0.7697  0.5355
 3794SOL    HW211561   8.841   6.638   4.393  0.3260 -0.9895 -1.4705
 3795SOL     OW11562   3.385   7.344   6.401  0.1742  0.1135  0.0822
 3795SOL    HW111563   3.434   7.275   6.347  0.5672  0.0459  0.5181
 3795SOL    HW211564   3.381   7.430   6.349  1.5774  0.3990  0.4078
 3796SOL     OW11565   3.489   0.988   7.060  0.4287  0.1510 -0.2951
 3796SOL    HW111566   3.502   0.936   7.145 -0.3446  0.3503 -0.0443
 3796SOL    HW211567   3.440   0.932   6.994 -1.4303  0.8934  0.3764
 3797SOL     OW11568   6.340   5.756   3.082 -0.2963 -0.1788  0.4757
 3797SOL    HW111569   6.275   5.679   3.079  0.2493 -0.6372  0.2588
 3797SOL    HW211570   6.305   5.831   3.025  0.7337 -1.5303 -2.1079
 3798SOL     OW11571   6.712   0.674   4.569  0.1456 -0.5665  0.4752
 3798SOL    HW111572   6.623   0.632   4.581 -0.7296  1.5042  1.8678
 3798SOL    HW211573   6.726   0.696   4.472 -0.9825 -0.6626  0.2804
 3799SOL     OW11574   1.815   3.408   4.614 -0.9227 -0.8447  0.0891
 3799SOL    HW111575   1.818   3.314   4.646 -2.4216 -0.1752  2.5051
 3799SOL    HW211576   1.867   3.466   4.677 -2.7298  0.3469  0.5742
 3800SOL     OW11577   0.828   2.705   8.760 -0.0143  0.5017  0.2495
 3800SOL    HW111578   0.822   2.805   8.760  0.9630  0.5685  1.0371
 3800SOL    HW211579   0.751   2.667   8.707 -0.5857  1.6481  0.2336
 3801SOL     OW11580   7.206   0.198   2.059 -0.1193  0.1878  0.3434
 3801SOL    HW111581   7.234   0.142   2.137  0.1072 -1.6837 -1.0080
 3801SOL    HW211582   7.259   0.283   2.058  0.4168 -0.0966  1.7779
 3802SOL     OW11583   3.275   1.738   0.685 -0.3345  0.1326  0.0273
 3802SOL    HW111584   3.202   1.681   0.646  1.1973 -1.3271 -0.8258
 3802SOL    HW211585   3.346   1.752   0.617  0.1497  1.6565  0.8055
 3803SOL     OW11586   0.429   0.006   6.076 -0.1233 -0.5165 -0.0014
 3803SOL    HW111587   0.366  -0.059   6.033 -0.2776 -0.1828 -0.2928
 3803SOL    HW211588   0.406   0.016   6.172  1.2218 -2.4654  0.5681
 3804SOL     OW11589   8.277   3.761   8.277  0.4302 -0.0357 -0.1020
 3804SOL    HW111590   8.211   3.821   8.322  0.8047  0.8169 -0.6607
 3804SOL    HW211591   8.235   3.719   8.196  0.3903  0.0349 -0.1177
 3805SOL     OW11592   0.684   4.384   6.771  0.1058 -0.3723 -0.2584
 3805SOL    HW111593   0.692   4.396   6.870 -0.6847 -0.4452 -0.1778
 3805SOL    HW211594   0.747   4.447   6.725  0.2490 -0.1124  0.2832
 3806SOL     OW11595   4.993   2.738   5.393  0.2077  0.4833  0.4428
 3806SOL    HW111596   4.956   2.668   5.455  1.2989 -3.0025 -2.5331
 3806SOL    HW211597   5.078   2.774   5.431 -1.6607  2.3610  3.2899
 3807SOL     OW11598   0.231   0.155   1.373  0.1065  0.0205 -0.1638
 3807SOL    HW111599   0.246   0.069   1.421 -0.7751 -0.4954 -0.7842
 3807SOL    HW211600   0.190   0.221   1.436  0.8013  0.0023  0.3188
 3808SOL     OW11601   7.091   4.323   6.265  0.3066  0.1348  0.0998
 3808SOL    HW111602   7.116   4.268   6.344  1.7148 -0.5306 -0.7733
 3808SOL    HW211603   7.027   4.272   6.207  1.7214 -0.7027 -0.7835
 3809SOL     OW11604   8.355   4.015   6.061  0.5817  0.2138 -0.2978
 3809SOL    HW111605   8.382   4.101   6.018  1.6714  0.2997  0.5249
 3809SOL    HW211606   8.387   4.014   6.156 -1.5585 -0.0604  0.4868
 3810SOL     OW11607   5.587   3.310   2.874 -0.0133 -0.1394  0.1791
 3810SOL    HW111608   5.500   3.287   2.920 -0.2207  1.2490  0.5190
 3810SOL    HW211609   5.662   3.303   2.940 -0.1301  0.4903  0.3922
 3811SOL     OW11610   4.819   5.555   7.118  0.8120  0.5220  0.5976
 3811SOL    HW111611   4.777   5.645   7.110 -2.3745 -0.8988 -0.1211
 3811SOL    HW211612   4.831   5.515   7.027 -2.1532 -1.5142  0.9619
 3812SOL     OW11613   5.679   3.537   1.933 -0.1785 -0.5117  0.0426
 3812SOL    HW111614   5.715   3.629   1.920  1.0519 -0.9686  0.0953
 3812SOL    HW211615   5.628   3.510   1.851  2.1087 -0.9329 -1.3471
 3813SOL     OW11616   2.135   2.120   1.332 -0.2394  0.6774 -0.1047
 3813SOL    HW111617   2.142   2.206   1.281  0.5464  0.6437 -0.0576
 3813SOL    HW211618   2.043   2.113   1.372 -0.3365  1.4614 -0.1704
 3814SOL     OW11619   7.867   2.625   2.815 -0.1673 -0.3513  0.2556
 3814SOL    HW111620   7.867   2.640   2.914 -1.4424  2.4244 -0.0693
 3814SOL    HW211621   7.910   2.703   2.769 -0.2496 -1.2423 -1.4101
 3815SOL     OW11622   1.592   6.927   1.633 -0.1039  0.1907 -0.0367
 3815SOL    HW111623   1.666   6.898   1.573  0.0224  1.8635 -0.7466
 3815SOL    HW211624   1.607   6.888   1.724 -0.1436 -2.1293 -0.9651
 3816SOL     OW11625   0.960   8.244   8.655 -0.3066  0.2122 -0.0585
 3816SOL    HW111626   0.917   8.249   8.745 -2.6022 -0.0276 -1.0661
 3816SOL    HW211627   1.052   8.207   8.664 -0.9498 -1.0310  2.0584
 3817SOL     OW11628   4.782   0.610   6.132  0.0107 -0.3067 -0.1251
 3817SOL    HW111629   4.688   0.575   6.135  0.5297 -1.7558  0.0229
 3817SOL    HW211630   4.783   0.699   6.087 -0.9430 -1.9888 -3.8631
 3818SOL     OW11631   0.205   0.625   4.986  0.4864 -0.2635 -0.4853
 3818SOL    HW111632   0.230   0.692   4.916  2.0608  0.5740  0.8019
 3818SOL    HW211633   0.239   0.535   4.959  2.8419  0.4034  0.0425
 3819SOL     OW11634   1.496   0.347   3.429  0.7666 -0.1358 -0.2208
 3819SOL    HW111635   1.584   0.367   3.473  0.9248  0.3314 -0.7419
 3819SOL    HW211636   1.505   0.265   3.373  1.0043  0.1970 -0.6682
 3820SOL     OW11637   4.076   5.039   3.546 -0.1820  0.1316 -0.7184
 3820SOL    HW111638   4.013   4.997   3.481  0.8410 -0.6127 -1.2389
 3820SOL    HW211639   4.164   4.994   3.542  0.7191  1.8009 -0.7161
 3821SOL     OW11640   3.844   5.515   1.745 -0.2627 -0.1381  0.3517
 3821SOL    HW111641   3.914   5.532   1.676 -0.3472 -0.1621  0.2599
 3821SOL    HW211642   3.849   5.586   1.816 -0.1988 -0.0935  0.3029
 3822SOL     OW11643   4.982   0.032   2.341  0.1609 -0.8890  0.2678
 3822SOL    HW111644   4.925  -0.009   2.270 -1.1188  1.2310  0.0045
 3822SOL    HW211645   4.965  -0.013   2.428  0.1775 -2.1138 -0.3447
 3823SOL     OW11646   3.317   8.606   5.935  0.0763 -0.5980 -0.1588
 3823SOL    HW111647   3.230   8.560   5.921 -0.9669  1.3532 -0.4256
 3823SOL    HW211648   3.339   8.608   6.032 -0.8645  0.0840  0.0468
 3824SOL     OW11649   1.102   0.885   4.304  0.3242  0.6327 -0.4456
 3824SOL    HW111650   1.182   0.825   4.305  0.5481  0.8625 -2.1762
 3824SOL    HW211651   1.123   0.968   4.253  0.1796  2.4920  2.3088
 3825SOL     OW11652   8.826   2.870   4.449 -0.0801  0.0315  0.0422
 3825SOL    HW111653   8.880   2.877   4.365  0.4623 -1.0201  0.2835
 3825SOL    HW211654   8.729   2.872   4.426  0.0344 -2.0643 -0.8398
 3826SOL     OW11655   4.848   0.933   4.116  0.2218  0.9415  0.0892
 3826SOL    HW111656   4.877   0.960   4.207  0.2667 -0.3118  0.4662
 3826SOL    HW211657   4.751   0.906   4.119 -0.7780  4.0091 -0.9218
 3827SOL     OW11658   2.432   2.730   7.189 -0.3907  0.0166 -0.1315
 3827SOL    HW111659   2.348   2.776   7.217 -1.2244  0.4686 -3.0296
 3827SOL    HW211660   2.414   2.632   7.181 -0.1663 -0.1060  0.7510
 3828SOL     OW11661   4.250   4.777   3.214  0.6183  0.0667  0.3673
 3828SOL    HW111662   4.347   4.771   3.192  0.5916  0.6701  0.0586
 3828SOL    HW211663   4.225   4.704   3.278  1.1160 -0.5419 -0.1219
 3829SOL     OW11664   3.339   8.244   3.598  0.4147  0.3106 -0.2109
 3829SOL    HW111665   3.317   8.228   3.694 -0.7785  0.3563 -0.4677
 3829SOL    HW211666   3.256   8.239   3.543  1.2387 -1.0177 -1.4228
 3830SOL     OW11667   1.235   6.564   7.712 -0.6462 -0.1884 -0.2533
 3830SOL    HW111668   1.262   6.511   7.792  1.1003  0.1854 -0.5521
 3830SOL    HW211669   1.144   6.604   7.727  0.9482  2.7058  3.0197
 3831SOL     OW11670   3.323   5.723   4.564  0.2733 -0.1139  0.0700
 3831SOL    HW111671   3.275   5.646   4.605  0.2490 -0.3975 -0.4861
 3831SOL    HW211672   3.260   5.777   4.509 -0.3639  1.8754  2.5679
 3832SOL     OW11673   8.793   6.562   4.972  0.1603  0.0342  0.3473
 3832SOL    HW111674   8.726   6.635   4.960  0.1599 -0.0847 -0.3996
 3832SOL    HW211675   8.780   6.519   5.062 -0.0909  0.6875  0.6270
 3833SOL     OW11676   1.581   7.534   3.312 -0.3504  0.5168 -0.1061
 3833SOL    HW111677   1.567   7.627   3.344 -0.3214  0.7458 -0.7500
 3833SOL    HW211678   1.493   7.494   3.284 -0.5755 -0.1309  1.4246
 3834SOL     OW11679   0.556   4.985   7.686 -0.3489 -0.1653  0.3597
 3834SOL    HW111680   0.656   4.979   7.677 -0.4387 -1.2092 -0.1019
 3834SOL    HW211681   0.515   4.986   7.594 -0.7756 -0.1834  0.5493
 3835SOL     OW11682   1.526   6.880   8.270 -0.0900  0.5331  0.1059
 3835SOL    HW111683   1.617   6.913   8.292  0.4570  0.0394 -1.3144
 3835SOL    HW211684   1.514   6.877   8.171 -1.7757  0.9026  0.2600
 3836SOL     OW11685   5.625   2.602   1.995 -0.2209  0.0439  0.4302
 3836SOL    HW111686   5.570   2.610   1.912  0.9947 -2.6452 -0.7723
 3836SOL    HW211687   5.709   2.552   1.974  1.3264  1.4455  2.8009
 3837SOL     OW11688   5.833   6.203   7.298 -0.2521  0.1966  0.3759
 3837SOL    HW111689   5.926   6.185   7.266 -0.7658 -1.0424 -0.5195
 3837SOL    HW211690   5.774   6.127   7.271 -1.3174  0.4690  1.8499
 3838SOL     OW11691   2.160   1.592   3.694 -0.3871  0.3122 -0.5526
 3838SOL    HW111692   2.087   1.523   3.697 -1.6463  1.4741 -2.3914
 3838SOL    HW211693   2.151   1.646   3.611  2.4979  0.6545 -0.7459
 3839SOL     OW11694   5.486   4.818   6.923  0.3542 -0.4768  1.1084
 3839SOL    HW111695   5.583   4.801   6.907  0.2649 -2.5088  2.3491
 3839SOL    HW211696   5.449   4.745   6.981 -2.0091  0.0395  0.3425
 3840SOL     OW11697   8.010   8.726   1.927  0.8556  0.2423 -0.2112
 3840SOL    HW111698   7.997   8.678   1.841  1.5745 -0.6376  0.1495
 3840SOL    HW211699   8.005   8.824   1.912 -1.3841  0.0930 -0.8490
 3841SOL     OW11700   7.902   2.123   0.901  0.1569  0.2182  0.2179
 3841SOL    HW111701   7.837   2.195   0.877  0.6982  0.7294  0.2330
 3841SOL    HW211702   7.856   2.051   0.951 -0.1968  1.0729  1.1566
 3842SOL     OW11703   5.429   1.316   2.947  0.0176  0.3253  0.4600
 3842SOL    HW111704   5.376   1.400   2.955  0.3711  0.5622  0.3517
 3842SOL    HW211705   5.395   1.262   2.870  0.7524  1.0847 -0.4192
 3843SOL     OW11706   4.898   3.174   6.014  0.3321  0.6458  0.1538
 3843SOL    HW111707   4.994   3.181   5.986  0.0859  0.0566 -0.9015
 3843SOL    HW211708   4.870   3.258   6.060  1.2362  0.9869  0.0974
 3844SOL     OW11709   7.134   4.599   6.318  0.3009 -0.2642 -0.3596
 3844SOL    HW111710   7.072   4.677   6.307  1.0118  0.6504  1.5753
 3844SOL    HW211711   7.081   4.515   6.324 -0.7111  0.3926  0.2596
 3845SOL     OW11712   3.708   5.332   3.653  0.1820  0.4683  0.2957
 3845SOL    HW111713   3.672   5.298   3.566 -2.1695 -0.2044  1.4389
 3845SOL    HW211714   3.720   5.431   3.648  0.7115  0.3530 -0.9923
 3846SOL     OW11715   6.178   5.776   4.842  0.0963  0.2429 -0.0034
 3846SOL    HW111716   6.276   5.757   4.834 -0.2366 -1.3890 -0.6610
 3846SOL    HW211717   6.148   5.757   4.936 -0.2442 -2.9944 -0.6536
 3847SOL     OW11718   5.797   1.246   2.548  0.1552 -0.3775  0.2969
 3847SOL    HW111719   5.716   1.269   2.602 -0.1851  0.8240 -0.6669
 3847SOL    HW211720   5.873   1.304   2.577  0.1801 -0.2765  0.0361
 3848SOL     OW11721   8.753   3.374   5.195  0.3568  0.6164  0.4111
 3848SOL    HW111722   8.815   3.414   5.263  1.0841 -0.4087  0.3681
 3848SOL    HW211723   8.682   3.321   5.241  0.1298  0.9188  0.4140
 3849SOL     OW11724   3.915   5.990   2.791  0.6863 -0.4966  0.5964
 3849SOL    HW111725   3.899   5.895   2.820 -0.0840 -0.5757 -0.0527
 3849SOL    HW211726   3.890   6.000   2.694  1.6832  0.1427  0.3938
 3850SOL     OW11727   7.933   3.097   0.944 -0.5340  1.0000  0.0070
 3850SOL    HW111728   7.980   3.020   0.987 -0.4859  1.3437  0.5897
 3850SOL    HW211729   7.954   3.181   0.995 -0.5172  1.4098 -0.6695
 3851SOL     OW11730   2.536   7.344   4.200  0.3288  0.0448 -0.0483
 3851SOL    HW111731   2.530   7.444   4.206 -0.3342 -0.0803  1.9636
 3851SOL    HW211732   2.513   7.304   4.288  0.5300 -1.9118 -0.8419
 3852SOL     OW11733   3.144   2.872   2.908 -0.3814 -0.2096  0.1944
 3852SOL    HW111734   3.133   2.954   2.852  0.6559 -0.6897 -0.7527
 3852SOL    HW211735   3.089   2.798   2.870 -0.3366 -0.3068  0.3191
 3853SOL     OW11736   2.348   1.865   4.702 -0.9768 -0.0514 -0.4000
 3853SOL    HW111737   2.257   1.853   4.741 -0.5852  0.2916  0.6563
 3853SOL    HW211738   2.368   1.963   4.695  0.0062 -0.1265  1.0675
 3854SOL     OW11739   3.504   6.372   6.259 -0.4757 -0.0022 -0.6074
 3854SOL    HW111740   3.444   6.322   6.321 -0.4409  2.4175  1.5403
 3854SOL    HW211741   3.596   6.332   6.262 -0.7109 -0.5084  0.1684
 3855SOL     OW11742   8.847   5.006   3.505 -0.3591 -0.6742  0.2025
 3855SOL    HW111743   8.794   4.999   3.420  0.9334 -3.1012 -0.4926
 3855SOL    HW211744   8.785   5.013   3.583 -1.6162 -0.5935 -0.7788
 3856SOL     OW11745   0.330   3.193   1.316  0.2149 -0.3701 -0.0462
 3856SOL    HW111746   0.243   3.162   1.278 -0.1615  0.6108 -0.0179
 3856SOL    HW211747   0.368   3.122   1.375 -0.4148 -0.9260 -0.3008
 3857SOL     OW11748   2.326   8.662   8.356 -0.0389  0.0546 -0.1542
 3857SOL    HW111749   2.255   8.649   8.425 -0.2114 -0.5480 -0.4332
 3857SOL    HW211750   2.302   8.739   8.297  0.6926  1.3289  1.1654
 3858SOL     OW11751   1.115   3.384   8.595  0.3311 -0.4192 -0.1583
 3858SOL    HW111752   1.109   3.330   8.679 -1.3351  1.0150  0.6940
 3858SOL    HW211753   1.040   3.358   8.534  0.0544  0.2723 -0.1215
 3859SOL     OW11754   7.857   6.809   3.991  0.6463 -0.3790  0.3533
 3859SOL    HW111755   7.912   6.850   3.919 -0.2702  0.5776  0.1688
 3859SOL    HW211756   7.900   6.826   4.080 -0.3808  2.2914  0.4391
 3860SOL     OW11757   5.710   4.212   5.449  0.0892 -0.5959  1.0485
 3860SOL    HW111758   5.712   4.141   5.519 -1.2707 -0.1998  1.5174
 3860SOL    HW211759   5.803   4.231   5.418  0.7139 -0.8542  2.6655
 3861SOL     OW11760   0.440   3.898   8.540  1.0433  0.3459  0.3977
 3861SOL    HW111761   0.397   3.951   8.467 -0.1894 -0.7769  0.2564
 3861SOL    HW211762   0.404   3.926   8.628  0.0733 -0.4813  0.2917
 3862SOL     OW11763   5.982   2.320   2.861 -0.3055  0.1497  0.5529
 3862SOL    HW111764   5.927   2.237   2.855 -0.8977  0.4854  1.2415
 3862SOL    HW211765   6.077   2.299   2.836 -0.7202 -0.4380 -0.6296
 3863SOL     OW11766   2.567   8.833   3.541 -0.0425  0.6178  0.3390
 3863SOL    HW111767   2.568   8.742   3.583  1.0072  0.6192  0.3282
 3863SOL    HW211768   2.624   8.833   3.459 -1.0394  0.9617 -0.3690
 3864SOL     OW11769   8.409   8.357   6.208  0.5926  0.5235 -0.6653
 3864SOL    HW111770   8.371   8.271   6.175 -0.6451  1.5131 -1.9796
 3864SOL    HW211771   8.369   8.379   6.297  3.3239 -1.7566  1.3123
 3865SOL     OW11772   0.606   6.769   7.903 -0.1226 -0.3133  0.2822
 3865SOL    HW111773   0.544   6.797   7.830  1.5796  0.0761 -1.0925
 3865SOL    HW211774   0.667   6.697   7.869  1.9973  1.2110  0.6288
 3866SOL     OW11775   1.954   5.932   2.314 -0.0202  0.1438 -0.1873
 3866SOL    HW111776   2.003   5.863   2.367 -1.7280 -0.4639  0.6866
 3866SOL    HW211777   1.920   6.003   2.376 -0.2838  0.5363 -0.7691
 3867SOL     OW11778   0.719   3.168   5.866  0.3915  0.2001  0.2147
 3867SOL    HW111779   0.649   3.097   5.869  0.8623 -0.2403  1.9790
 3867SOL    HW211780   0.805   3.131   5.900  0.6469  1.5954  1.1842
 3868SOL     OW11781   2.931   3.186   2.972  0.1382  0.0691 -0.0114
 3868SOL    HW111782   3.016   3.135   2.960  0.5114  0.5581  0.4727
 3868SOL    HW211783   2.897   3.173   3.066 -0.1825  0.0777 -0.1246
 3869SOL     OW11784   8.040   5.719   7.036 -0.2071 -0.8744 -0.1743
 3869SOL    HW111785   8.074   5.672   6.955  0.5916 -0.0233 -0.3543
 3869SOL    HW211786   8.041   5.657   7.114  0.2936 -1.3172 -0.5277
 3870SOL     OW11787   3.247   4.184   5.711  0.1754  0.7155 -0.2965
 3870SOL    HW111788   3.151   4.186   5.684  0.1616 -3.2501 -1.2065
 3870SOL    HW211789   3.254   4.178   5.810 -0.4631  1.5200 -0.1917
 3871SOL     OW11790   3.570   0.614   4.165  0.3414  0.1483 -0.3190
 3871SOL    HW111791   3.636   0.675   4.209  0.8561  0.4543 -1.4926
 3871SOL    HW211792   3.617   0.554   4.101 -0.3995 -0.2871 -0.4696
 3872SOL     OW11793   1.653   5.546   3.845  0.5001 -0.3213 -0.1478
 3872SOL    HW111794   1.739   5.579   3.806  0.8144 -1.5805 -0.6036
 3872SOL    HW211795   1.588   5.527   3.771  0.6465 -1.5095  0.0065
 3873SOL     OW11796   5.801   7.491   7.231 -0.4188 -0.9329 -0.1912
 3873SOL    HW111797   5.880   7.512   7.174 -1.0980 -2.0306 -1.6082
 3873SOL    HW211798   5.785   7.567   7.294  0.9537 -0.1040 -0.7784
 3874SOL     OW11799   7.357   2.782   1.354 -0.1947 -0.1585 -0.2131
 3874SOL    HW111800   7.396   2.763   1.444  0.2273  1.1961 -0.0925
 3874SOL    HW211801   7.416   2.743   1.283 -0.1619 -0.6287  0.0688
 3875SOL     OW11802   5.057   1.778   1.709 -0.1573 -0.0467 -0.0931
 3875SOL    HW111803   5.093   1.799   1.618  0.0606 -0.9582 -0.2306
 3875SOL    HW211804   5.041   1.680   1.716 -2.9733  0.3500 -0.1482
 3876SOL     OW11805   1.545   8.821   2.030  0.2939  0.1024 -0.6495
 3876SOL    HW111806   1.474   8.806   2.099 -1.0631 -0.2501 -2.0798
 3876SOL    HW211807   1.511   8.882   1.960  1.8015  0.7740 -0.8325
 3877SOL     OW11808   0.493   0.608   2.098  0.2440  0.0574  0.0059
 3877SOL    HW111809   0.473   0.655   2.012 -0.6373 -1.5471 -0.7220
 3877SOL    HW211810   0.462   0.664   2.174 -1.3256  0.4447 -0.8492
 3878SOL     OW11811   8.767   6.495   0.791 -0.0280  0.7077  0.6545
 3878SOL    HW111812   8.692   6.470   0.853  0.9544  1.2208  2.1216
 3878SOL    HW211813   8.736   6.566   0.728 -0.8934  0.5929  0.9289
 3879SOL     OW11814   8.724   2.990   1.294 -0.3142 -0.5440 -0.0188
 3879SOL    HW111815   8.667   2.941   1.359  0.4088  1.5245  2.3527
 3879SOL    HW211816   8.669   3.060   1.247 -0.3635 -0.5024  0.1005
 3880SOL     OW11817   6.029   7.748   2.359 -0.4634 -0.3282  0.3046
 3880SOL    HW111818   6.012   7.842   2.389  0.6014 -0.7210  2.3174
 3880SOL    HW211819   6.121   7.741   2.321 -0.3858 -0.6214  0.5381
 3881SOL     OW11820   7.660   5.234   5.828  0.0739 -0.0220 -0.3513
 3881SOL    HW111821   7.620   5.281   5.749  0.1261 -0.4078 -0.6068
 3881SOL    HW211822   7.752   5.268   5.844 -0.2659  0.7254  0.1152
 3882SOL     OW11823   5.064   6.672   5.149  0.2296  0.1671 -0.0178
 3882SOL    HW111824   5.109   6.726   5.221  1.6849 -0.7953 -0.1597
 3882SOL    HW211825   5.101   6.697   5.060 -0.7139  0.5136 -0.3226
 3883SOL     OW11826   1.987   0.943   7.792  0.2214 -0.2048 -0.3128
 3883SOL    HW111827   2.068   0.896   7.829 -0.8338 -1.7130  0.1780
 3883SOL    HW211828   1.920   0.875   7.763 -0.4761  1.0125 -1.6755
 3884SOL     OW11829   5.675   6.033   6.104 -0.2376  0.8056 -0.2829
 3884SOL    HW111830   5.696   6.085   6.022  0.2451 -0.3007 -0.8762
 3884SOL    HW211831   5.663   6.095   6.181 -0.5738  1.8462 -1.1565
 3885SOL     OW11832   5.282   4.612   8.633 -0.1137 -0.0252  0.2188
 3885SOL    HW111833   5.283   4.513   8.631 -0.7787 -0.0365 -0.1355
 3885SOL    HW211834   5.197   4.643   8.677  0.9854  0.3907  2.1693
 3886SOL     OW11835   8.633   6.175   7.314  0.1793  0.0447  0.9170
 3886SOL    HW111836   8.711   6.192   7.374  0.2453 -0.8550  1.0996
 3886SOL    HW211837   8.551   6.158   7.368  0.0294  0.1889  0.7379
 3887SOL     OW11838   8.108   1.357   4.364  0.0030  0.3164  0.6239
 3887SOL    HW111839   8.194   1.364   4.314  1.1479 -0.0593  2.4598
 3887SOL    HW211840   8.064   1.270   4.343  0.9643 -0.2735  0.9877
 3888SOL     OW11841   5.506   0.777   3.420  0.3340  0.3619 -0.7075
 3888SOL    HW111842   5.415   0.784   3.461 -0.1212 -0.3647 -1.5477
 3888SOL    HW211843   5.568   0.842   3.464 -0.0042 -0.6848  1.4020
 3889SOL     OW11844   2.605   6.233   7.700 -0.1134 -0.1995  0.8788
 3889SOL    HW111845   2.648   6.187   7.622  0.5745  0.7522  0.6734
 3889SOL    HW211846   2.643   6.196   7.785 -0.5773 -0.9664  0.7590
 3890SOL     OW11847   8.200   0.464   2.600 -0.7834 -0.1684  0.0279
 3890SOL    HW111848   8.250   0.386   2.639  2.1498  1.6900  0.2680
 3890SOL    HW211849   8.204   0.459   2.501  2.8922  1.4936 -0.0891
 3891SOL     OW11850   3.810   3.935   1.481 -0.4281 -0.2822  0.2046
 3891SOL    HW111851   3.783   3.978   1.568  1.2037  0.9436  0.1370
 3891SOL    HW211852   3.812   4.003   1.409  1.3893 -0.6100 -0.0952
 3892SOL     OW11853   7.132   7.986   1.945 -0.1780 -0.2209  0.7172
 3892SOL    HW111854   7.108   7.979   2.042 -0.5533 -1.3338  0.5583
 3892SOL    HW211855   7.178   7.902   1.916  0.9959  0.5775  0.2085
 3893SOL     OW11856   5.895   6.364   7.514  0.5400  0.1712  0.5626
 3893SOL    HW111857   5.993   6.353   7.528  0.2494 -2.5549  1.0367
 3893SOL    HW211858   5.871   6.332   7.422  0.2002  1.9872 -0.0268
 3894SOL     OW11859   8.815   2.172   6.994  0.8256 -0.0404 -0.6245
 3894SOL    HW111860   8.837   2.112   6.916  3.0594 -0.8864  0.5673
 3894SOL    HW211861   8.891   2.233   7.011 -0.2347  1.1265  0.0522
 3895SOL     OW11862   3.453   7.768   0.820  0.5632  0.5856  0.2529
 3895SOL    HW111863   3.360   7.804   0.827 -1.2901 -3.4879 -0.4164
 3895SOL    HW211864   3.465   7.693   0.885  3.4453  0.9749  0.3100
 3896SOL     OW11865   0.608   0.399   6.154  0.2860  0.0446 -0.4936
 3896SOL    HW111866   0.585   0.326   6.218  1.0678 -0.6779 -1.0087
 3896SOL    HW211867   0.598   0.365   6.060  1.4146  0.3272 -0.7356
 3897SOL     OW11868   3.895   0.865   6.285  0.1547 -0.1252  0.5423
 3897SOL    HW111869   3.883   0.957   6.248  0.8638 -1.0404 -2.1330
 3897SOL    HW211870   3.825   0.848   6.355 -0.7984  1.9819  0.1700
 3898SOL     OW11871   5.396   4.235   3.525 -0.3641  0.2592  0.0858
 3898SOL    HW111872   5.343   4.255   3.607 -0.1575 -0.8470  0.5108
 3898SOL    HW211873   5.494   4.243   3.545 -0.3256  0.4599 -0.1820
 3899SOL     OW11874   4.471   6.458   3.494 -0.7193  0.0174 -0.1841
 3899SOL    HW111875   4.441   6.552   3.477 -1.9889 -0.1359  1.0792
 3899SOL    HW211876   4.558   6.460   3.544 -0.8335  0.5370  0.0036
 3900SOL     OW11877   1.371   5.772   7.181 -0.6072 -0.2842 -0.2314
 3900SOL    HW111878   1.382   5.811   7.272 -1.0801 -1.1926  0.2251
 3900SOL    HW211879   1.322   5.685   7.187  1.6852 -1.7350 -1.0264
 3901SOL     OW11880   3.675   5.490   2.452  0.1466 -0.9213  0.1411
 3901SOL    HW111881   3.719   5.563   2.400 -0.3114 -0.6841  0.0745
 3901SOL    HW211882   3.692   5.402   2.409  0.2873 -0.7960 -0.0587
 3902SOL     OW11883   7.247   2.604   5.237 -0.1439  0.0691 -0.9989
 3902SOL    HW111884   7.255   2.700   5.263  1.0725  0.0937 -1.4157
 3902SOL    HW211885   7.182   2.558   5.298  1.3234  0.5163  1.0022
 3903SOL     OW11886   4.697   6.415   8.084 -0.0080  0.3672 -0.0303
 3903SOL    HW111887   4.655   6.464   8.007  0.5258 -1.3001 -1.4331
 3903SOL    HW211888   4.785   6.457   8.105  0.2607  0.2853 -0.9461
 3904SOL     OW11889   0.265   0.475   7.503  0.2447  0.2489 -0.4445
 3904SOL    HW111890   0.173   0.438   7.519 -0.3467 -0.1016 -3.7757
 3904SOL    HW211891   0.266   0.572   7.526 -0.9361  0.2239 -0.2024
 3905SOL     OW11892   2.523   1.097   8.309  0.2301  0.1686 -0.0496
 3905SOL    HW111893   2.518   1.064   8.404  2.2330  2.3487  0.9095
 3905SOL    HW211894   2.553   1.022   8.250  0.2674 -0.8985  1.2533
 3906SOL     OW11895   0.689   3.021   8.290  0.3906 -0.7648  0.7376
 3906SOL    HW111896   0.625   2.968   8.236  0.2494  0.1060  0.0280
 3906SOL    HW211897   0.758   2.960   8.330 -0.1189 -1.5430  0.4457
 3907SOL     OW11898   1.186   3.454   7.672 -0.8356 -0.0346  0.1882
 3907SOL    HW111899   1.103   3.472   7.619  0.8335  2.8726 -1.7044
 3907SOL    HW211900   1.188   3.514   7.752 -1.6597 -1.8984  1.6743
 3908SOL     OW11901   8.037   4.258   5.301 -0.2291  0.2325 -0.1790
 3908SOL    HW111902   8.002   4.239   5.209 -0.5061  1.9269 -0.4547
 3908SOL    HW211903   8.077   4.349   5.303 -0.9577  0.5451  1.6064
 3909SOL     OW11904   8.831   7.790   3.866 -0.2733 -0.0946 -0.1205
 3909SOL    HW111905   8.765   7.845   3.816 -0.0972  1.0939  0.8984
 3909SOL    HW211906   8.924   7.820   3.843 -0.1399 -0.5273 -0.1666
 3910SOL     OW11907   1.414   1.831   5.994 -0.0855  0.2270  0.4319
 3910SOL    HW111908   1.318   1.837   6.022  0.1170 -0.5613  1.3374
 3910SOL    HW211909   1.430   1.743   5.950  0.3704  0.0670  0.9118
 3911SOL     OW11910   1.718   4.110   0.384 -0.1608 -0.3627  0.2565
 3911SOL    HW111911   1.740   4.014   0.367  0.9189  0.1254 -1.3339
 3911SOL    HW211912   1.646   4.139   0.320  0.9263  0.3812 -0.6802
 3912SOL     OW11913   4.291   2.428   5.392 -0.0294 -0.9236  0.1179
 3912SOL    HW111914   4.278   2.473   5.481 -1.8017  0.2338 -0.6749
 3912SOL    HW211915   4.239   2.342   5.390 -2.1723  0.3054 -0.6231
 3913SOL     OW11916   7.366   0.138   2.447  0.6283 -0.3187 -0.3622
 3913SOL    HW111917   7.418   0.151   2.531  0.5214  0.1151 -0.3587
 3913SOL    HW211918   7.269   0.135   2.468  0.5847  0.0468 -0.4913
 3914SOL     OW11919   3.872   1.816   8.243  0.3523 -0.1730 -0.3568
 3914SOL    HW111920   3.869   1.802   8.342  1.6041  0.0070 -0.2748
 3914SOL    HW211921   3.900   1.909   8.223  0.5626 -0.3422 -0.8807
 3915SOL     OW11922   2.567   3.279   8.523 -0.3589  0.1521 -0.1237
 3915SOL    HW111923   2.518   3.207   8.572  0.0129 -0.4765 -0.6578
 3915SOL    HW211924   2.516   3.364   8.529 -2.0369 -0.7014 -1.4559
 3916SOL     OW11925   4.424   6.477   7.557 -0.0131 -0.4437  0.2856
 3916SOL    HW111926   4.501   6.427   7.516 -0.4430 -1.6333  0.8878
 3916SOL    HW211927   4.365   6.513   7.485  0.8566  0.1001 -0.1725
 3917SOL     OW11928   2.811   6.292   0.216  0.6177 -0.1720  0.7711
 3917SOL    HW111929   2.862   6.292   0.302  0.3248 -0.1543  0.9478
 3917SOL    HW211930   2.868   6.255   0.143  0.4053 -1.4861  1.2449
 3918SOL     OW11931   5.656   3.793   1.136 -0.2563  0.7189  0.0185
 3918SOL    HW111932   5.740   3.766   1.184  1.2402  3.0026 -1.1412
 3918SOL    HW211933   5.672   3.792   1.037 -2.0172 -0.0027 -0.2884
 3919SOL     OW11934   6.997   2.884   0.720 -0.1490  0.5449  0.0984
 3919SOL    HW111935   6.906   2.846   0.706  1.1809 -3.2128  0.4495
 3919SOL    HW211936   7.032   2.920   0.633 -0.7735 -0.9661 -0.8177
 3920SOL     OW11937   8.396   8.801   4.865 -0.3550 -0.3209  0.6570
 3920SOL    HW111938   8.385   8.800   4.964  0.1188 -1.9349  0.7191
 3920SOL    HW211939   8.306   8.797   4.822 -0.5168 -0.7315  1.0275
 3921SOL     OW11940   4.976   0.696   0.349 -0.1534  0.5803 -0.3647
 3921SOL    HW111941   4.931   0.627   0.407 -0.6988  1.0757 -0.1870
 3921SOL    HW211942   4.991   0.658   0.258 -0.1620  0.1147 -0.1734
 3922SOL     OW11943   5.911   2.786   8.820 -0.2694 -0.0581  0.2410
 3922SOL    HW111944   5.828   2.781   8.875 -1.3832  0.6791 -1.3136
 3922SOL    HW211945   5.896   2.738   8.734 -0.2306  2.7493 -1.4336
 3923SOL     OW11946   2.639   2.610   2.423  0.3295  0.0085  0.0164
 3923SOL    HW111947   2.581   2.684   2.455  0.4402  0.9059 -1.7162
 3923SOL    HW211948   2.735   2.637   2.432  0.3858 -0.1282 -0.1653
 3924SOL     OW11949   4.504   4.718   2.384 -0.5242  0.0122  0.2026
 3924SOL    HW111950   4.602   4.732   2.370 -0.8305  0.0228 -2.3234
 3924SOL    HW211951   4.452   4.772   2.317 -2.2462 -0.5278  1.0417
 3925SOL     OW11952   2.473   5.889   3.619 -0.1009 -0.3785  0.1633
 3925SOL    HW111953   2.507   5.853   3.706 -3.2508 -1.4752  1.0790
 3925SOL    HW211954   2.481   5.988   3.619  2.1250 -0.5031  0.6536
 3926SOL     OW11955   2.242   4.249   3.406  0.2046  0.1505  0.1570
 3926SOL    HW111956   2.275   4.287   3.492 -0.2150 -0.3133  0.5303
 3926SOL    HW211957   2.227   4.151   3.417 -1.2204  0.3349 -0.0253
 3927SOL     OW11958   2.683   6.208   5.434 -0.1427 -0.5744 -0.0613
 3927SOL    HW111959   2.743   6.283   5.464  0.8469 -0.9620 -0.9960
 3927SOL    HW211960   2.608   6.197   5.500 -1.0330  2.0208 -0.5166
 3928SOL     OW11961   2.444   6.714   1.787  0.2643 -0.8582  0.8410
 3928SOL    HW111962   2.439   6.813   1.770  2.4660 -0.7155  0.7722
 3928SOL    HW211963   2.460   6.666   1.701  0.0802 -1.2124  1.0006
 3929SOL     OW11964   5.068   5.824   8.164 -0.2012 -0.1166  0.4302
 3929SOL    HW111965   5.153   5.839   8.114 -0.3568  0.6009  0.3666
 3929SOL    HW211966   5.010   5.759   8.114 -0.2041  0.3254 -0.1435
 3930SOL     OW11967   3.005   7.514   8.114  0.2027  0.0819  1.0706
 3930SOL    HW111968   3.025   7.425   8.154 -0.2356 -0.1337  0.8168
 3930SOL    HW211969   3.090   7.566   8.103  0.6067 -0.7238  0.2372
 3931SOL     OW11970   5.577   3.147   4.058 -0.0237  0.3847 -0.1672
 3931SOL    HW111971   5.653   3.140   4.122 -0.6634 -0.0512  0.5645
 3931SOL    HW211972   5.494   3.112   4.101 -0.3110 -0.6888 -1.5139
 3932SOL     OW11973   2.750   5.699   6.631  0.0713  0.3688  0.1852
 3932SOL    HW111974   2.788   5.706   6.723 -0.3261  1.7825  0.2687
 3932SOL    HW211975   2.803   5.633   6.578 -0.4711 -1.4156  1.7825
 3933SOL     OW11976   5.616   3.765   3.812 -0.2127  0.0799 -0.1844
 3933SOL    HW111977   5.565   3.800   3.890  0.9985 -1.2003  1.2292
 3933SOL    HW211978   5.674   3.689   3.840  1.6953  0.7732 -1.9206
 3934SOL     OW11979   6.483   1.315   3.586 -0.2195  0.4284  0.4137
 3934SOL    HW111980   6.566   1.352   3.545 -1.4860  1.6038 -1.2319
 3934SOL    HW211981   6.484   1.215   3.580  1.2215  0.4007  0.7733
 3935SOL     OW11982   6.108   5.617   3.050  0.0770  0.2142  0.3048
 3935SOL    HW111983   6.072   5.562   2.975 -0.2465 -0.6426  1.0612
 3935SOL    HW211984   6.077   5.578   3.137  1.8440  0.1568  0.9428
 3936SOL     OW11985   0.134   0.509   6.930  0.6091 -0.6839 -0.1576
 3936SOL    HW111986   0.149   0.413   6.908 -0.3192 -0.3663 -2.4978
 3936SOL    HW211987   0.220   0.559   6.921  0.9247 -1.1527  0.2410
 3937SOL     OW11988   6.038   6.810   2.248  0.2081 -0.6290  0.0468
 3937SOL    HW111989   6.054   6.718   2.283 -0.6823 -1.0135 -0.5340
 3937SOL    HW211990   5.956   6.810   2.191  1.3996  0.0524 -1.7255
 3938SOL     OW11991   7.658   3.223   7.567 -0.1867 -0.1575  0.4458
 3938SOL    HW111992   7.688   3.209   7.472 -0.5687 -1.9204  0.5603
 3938SOL    HW211993   7.558   3.220   7.571 -0.1392 -1.0350  1.0401
 3939SOL     OW11994   3.750   8.444   6.094  0.1909 -0.9466  0.0086
 3939SOL    HW111995   3.741   8.527   6.039  0.1419 -0.7907  0.2524
 3939SOL    HW211996   3.838   8.401   6.074  0.8975 -0.0162  1.0028
 3940SOL     OW11997   7.393   1.084   4.258 -0.4749 -0.0291 -0.4044
 3940SOL    HW111998   7.455   1.011   4.284  0.8209  0.4372 -1.9908
 3940SOL    HW211999   7.366   1.136   4.339  2.2903  0.5549  0.2454
 3941SOL     OW12000   5.591   2.393   6.964  0.0237 -0.9360  0.1425
 3941SOL    HW112001   5.505   2.442   6.946  1.1406  1.2648  0.5084
 3941SOL    HW212002   5.569   2.301   6.996 -2.2797  0.0222  1.6579
 3942SOL     OW12003   7.748   1.862   7.101 -0.0030  0.2412  0.0958
 3942SOL    HW112004   7.757   1.911   7.187  1.2373 -1.1121  0.7913
 3942SOL    HW212005   7.652   1.850   7.078 -0.3425  2.8182 -0.0446
 3943SOL     OW12006   5.755   8.116   8.404 -0.3890  0.4781  0.4235
 3943SOL    HW112007   5.742   8.148   8.498 -0.5479  0.5723  0.3690
 3943SOL    HW212008   5.713   8.025   8.394  0.1214  0.2187  0.5957
 3944SOL     OW12009   6.815   3.306   2.297  0.0444 -0.3207 -0.4718
 3944SOL    HW112010   6.755   3.375   2.339 -0.5273  0.1472 -1.9699
 3944SOL    HW212011   6.910   3.328   2.317 -0.2248 -1.1174  2.0163
 3945SOL     OW12012   6.138   1.937   6.014  0.2236 -0.2082  0.1094
 3945SOL    HW112013   6.080   1.990   6.077 -0.1561 -0.6689  0.1554
 3945SOL    HW212014   6.180   1.999   5.948  0.2823  0.2303  0.5467
 3946SOL     OW12015   7.422   6.190   7.033  0.0547 -0.3562 -0.2355
 3946SOL    HW112016   7.408   6.247   7.114  0.8190 -0.0791 -0.2930
 3946SOL    HW212017   7.520   6.171   7.022 -0.1044 -0.9035 -0.7459
 3947SOL     OW12018   4.583   6.255   2.935  0.2832  0.4700 -0.2933
 3947SOL    HW112019   4.493   6.294   2.916  0.3621  0.7247 -0.1418
 3947SOL    HW212020   4.612   6.280   3.027  0.0382 -0.5014  0.0659
 3948SOL     OW12021   4.754   1.251   7.348 -0.2254  0.0813  0.1722
 3948SOL    HW112022   4.779   1.270   7.443  0.1001 -3.3556  0.8990
 3948SOL    HW212023   4.720   1.158   7.341 -0.5330  0.3332 -3.0885
 3949SOL     OW12024   4.025   3.731   1.822 -0.1236 -0.2960  0.4749
 3949SOL    HW112025   4.017   3.717   1.724  0.6253 -3.8946  0.8025
 3949SOL    HW212026   4.120   3.748   1.847  0.2761 -2.5583  0.7632
 3950SOL     OW12027   5.091   7.228   0.871  0.3914  0.0278  0.0394
 3950SOL    HW112028   5.002   7.265   0.897  0.8946  2.3804 -1.3023
 3950SOL    HW212029   5.157   7.303   0.862  2.2068 -1.5314 -0.1738
 3951SOL     OW12030   4.183   7.628   2.680  0.8367  0.8652 -0.6725
 3951SOL    HW112031   4.213   7.672   2.765 -1.0368  1.4287 -0.2487
 3951SOL    HW212032   4.234   7.544   2.667 -1.0482 -1.1028  2.9045
 3952SOL     OW12033   3.738   6.758   1.398  0.3314  0.0898 -0.0292
 3952SOL    HW112034   3.727   6.665   1.433  1.0590  0.7355  2.0487
 3952SOL    HW212035   3.692   6.822   1.459  0.1925  1.1557 -1.2163
 3953SOL     OW12036   2.947   3.605   4.982 -0.1836 -0.4235 -0.4996
 3953SOL    HW112037   2.893   3.565   5.056 -0.4701  1.4705  0.3768
 3953SOL    HW212038   3.022   3.659   5.021 -1.0893  1.6796 -1.5052
 3954SOL     OW12039   7.318   4.065   8.250 -0.4896 -0.2546 -0.3072
 3954SOL    HW112040   7.260   3.991   8.284  0.8605 -0.5005  1.6934
 3954SOL    HW212041   7.327   4.135   8.321  1.2204  0.0062 -0.7390
 3955SOL     OW12042   2.372   1.283   7.534 -0.0517 -0.3813  0.0807
 3955SOL    HW112043   2.329   1.197   7.505  0.7314 -0.0945 -2.1286
 3955SOL    HW212044   2.316   1.360   7.504  0.7011 -0.0768 -0.5926
 3956SOL     OW12045   8.673   2.311   1.547 -0.8695  0.3302  0.7154
 3956SOL    HW112046   8.586   2.342   1.586 -0.9347  0.6740  0.2966
 3956SOL    HW212047   8.655   2.239   1.480 -1.2440  3.0842 -2.3732
 3957SOL     OW12048   7.911   4.348   2.169  0.6006 -0.2416 -0.4021
 3957SOL    HW112049   7.844   4.302   2.228 -0.8881  1.1238 -0.9579
 3957SOL    HW212050   7.869   4.430   2.129  3.1639  1.7427  0.6723
 3958SOL     OW12051   7.562   2.385   7.565 -0.5638  0.1772  0.1055
 3958SOL    HW112052   7.582   2.318   7.636  0.7212  0.0588 -0.3356
 3958SOL    HW212053   7.615   2.468   7.581 -1.7845  0.9247  0.3789
 3959SOL     OW12054   2.276   3.960   1.573  0.5669  0.2659  0.8117
 3959SOL    HW112055   2.354   3.898   1.563  0.0360 -0.2282 -0.4179
 3959SOL    HW212056   2.295   4.045   1.524 -0.3733 -0.5772 -1.1635
 3960SOL     OW12057   6.687   6.448   2.640 -0.2766 -0.4904  0.1139
 3960SOL    HW112058   6.729   6.400   2.563 -0.2052 -0.3644  0.0748
 3960SOL    HW212059   6.712   6.544   2.637  0.9989 -0.7714  1.1737
 3961SOL     OW12060   3.764   0.285   5.632  0.5324  0.1536 -0.0697
 3961SOL    HW112061   3.813   0.302   5.547  1.1995  0.9662  0.4679
 3961SOL    HW212062   3.772   0.365   5.693  0.5065 -0.6059  0.9653
 3962SOL     OW12063   8.754   3.352   0.424 -0.2021 -0.2818  0.3229
 3962SOL    HW112064   8.849   3.384   0.434 -0.5087  0.5322  0.7016
 3962SOL    HW212065   8.724   3.365   0.330 -0.1031 -0.0710  0.3202
 3963SOL     OW12066   0.324   6.366   2.768  0.7995 -0.1098 -0.3083
 3963SOL    HW112067   0.239   6.378   2.820  0.8505  0.9905 -0.4463
 3963SOL    HW212068   0.303   6.340   2.674  0.5960  0.2383 -0.3631
 3964SOL     OW12069   5.767   0.333   6.894 -0.2410  0.3177  0.1957
 3964SOL    HW112070   5.833   0.404   6.919  0.6012 -0.8758  1.4911
 3964SOL    HW212071   5.674   0.368   6.910  0.1758  0.9470  1.3904
 3965SOL     OW12072   7.624   0.998   2.836 -0.0770 -0.1486 -0.4146
 3965SOL    HW112073   7.648   1.013   2.932  0.0165  1.9887 -0.7262
 3965SOL    HW212074   7.583   0.907   2.826 -0.6239 -0.1949  1.7296
 3966SOL     OW12075   6.900   5.501   3.677  0.0435  0.2314  0.0790
 3966SOL    HW112076   6.922   5.477   3.582 -0.4835  1.7057 -0.4439
 3966SOL    HW212077   6.814   5.457   3.703  0.1742 -0.1562 -0.1337
 3967SOL     OW12078   1.423   4.959   2.454  0.0613  0.1641 -0.3549
 3967SOL    HW112079   1.504   4.924   2.501  0.1715 -0.2026 -0.8137
 3967SOL    HW212080   1.441   4.966   2.356  0.2802  2.1537 -0.2184
 3968SOL     OW12081   6.329   0.636   0.571  0.5813  0.0792 -0.1760
 3968SOL    HW112082   6.347   0.577   0.650 -1.5584  0.8202  0.9131
 3968SOL    HW212083   6.276   0.716   0.600  1.7703  1.5975 -1.9675
 3969SOL     OW12084   1.814   3.038   2.962 -0.0829 -0.6809 -0.0370
 3969SOL    HW112085   1.854   2.952   2.993  0.2639 -0.3105  0.5635
 3969SOL    HW212086   1.833   3.110   3.029 -2.0374 -0.5515  0.4308
 3970SOL     OW12087   1.861   8.686   5.719 -0.2977  0.6368  0.2796
 3970SOL    HW112088   1.857   8.695   5.620  1.0048  0.0967  0.1544
 3970SOL    HW212089   1.932   8.748   5.755 -0.3890  0.4432  0.8057
 3971SOL     OW12090   0.075   8.496   7.551  0.1542  0.5475 -0.2143
 3971SOL    HW112091   0.172   8.475   7.536  0.3609  1.8224 -0.7422
 3971SOL    HW212092   0.041   8.441   7.628  1.0520 -0.5575 -0.5709
 3972SOL     OW12093   1.338   7.079   3.712 -0.0247 -0.1708 -0.0811
 3972SOL    HW112094   1.250   7.071   3.759  0.8520 -0.6178  1.5913
 3972SOL    HW212095   1.405   7.021   3.758  1.2088  0.3444 -1.1707
 3973SOL     OW12096   4.889   4.928   8.797 -0.0057  0.3294  0.0113
 3973SOL    HW112097   4.800   4.909   8.755  0.5384 -2.1825 -0.1543
 3973SOL    HW212098   4.894   4.881   8.886  1.6308 -0.7916 -0.6227
 3974SOL     OW12099   8.645   5.640   2.412  0.3676 -0.1518  0.2833
 3974SOL    HW112100   8.562   5.688   2.385  1.6555  1.9145 -0.2489
 3974SOL    HW212101   8.694   5.695   2.481  2.4173 -0.1029 -1.0956
 3975SOL     OW12102   8.776   8.666   1.160 -0.0852  0.2387 -0.2291
 3975SOL    HW112103   8.834   8.743   1.187  0.2602 -0.0786 -0.0574
 3975SOL    HW212104   8.701   8.699   1.103 -0.0965  0.7403  0.0722
 3976SOL     OW12105   2.643   8.058   0.420  0.2304 -0.3348 -0.2708
 3976SOL    HW112106   2.640   8.019   0.512 -0.4884 -0.2827 -0.2667
 3976SOL    HW212107   2.601   7.996   0.355  0.0875 -0.0573 -0.4478
 3977SOL     OW12108   7.662   1.796   0.372 -0.1786 -0.0826 -0.0025
 3977SOL    HW112109   7.670   1.781   0.273 -1.3331 -0.2184 -0.0891
 3977SOL    HW212110   7.585   1.742   0.407 -1.4312  1.9729  0.5237
 3978SOL     OW12111   1.773   8.722   2.522 -0.1655  0.7140  0.7534
 3978SOL    HW112112   1.831   8.736   2.602 -1.8924  0.4564  2.0970
 3978SOL    HW212113   1.693   8.668   2.548  0.6428 -1.9811 -1.7706
 3979SOL     OW12114   3.025   0.585   3.021  0.2520  0.6428 -0.2007
 3979SOL    HW112115   2.948   0.632   3.063 -1.6984 -1.3295 -1.3757
 3979SOL    HW212116   3.111   0.623   3.056 -1.2167  1.1835  3.1299
 3980SOL     OW12117   3.046   7.877   6.505 -0.0248 -0.2085 -0.0091
 3980SOL    HW112118   2.994   7.860   6.422 -0.3450  1.8280 -0.2863
 3980SOL    HW212119   2.995   7.843   6.584 -1.2438  0.6458 -0.3912
 3981SOL     OW12120   4.059   3.744   4.834 -0.2528  0.0971 -0.4356
 3981SOL    HW112121   4.038   3.702   4.922  0.1036  1.6679  0.4420
 3981SOL    HW212122   4.103   3.832   4.849 -1.6142  1.1386 -2.1665
 3982SOL     OW12123   2.857   7.884   7.437 -0.0749 -0.6236 -0.2146
 3982SOL    HW112124   2.950   7.870   7.472  0.0413 -0.6658 -0.5303
 3982SOL    HW212125   2.801   7.929   7.506 -0.4263 -2.5383  0.8107
 3983SOL     OW12126   4.709   7.926   8.813  0.3365  0.1756 -0.0881
 3983SOL    HW112127   4.620   7.896   8.845  0.2423  0.5198 -0.0223
 3983SOL    HW212128   4.767   7.846   8.794 -0.6624 -0.1271 -2.0771
 3984SOL     OW12129   0.555   4.744   1.384 -0.1540 -0.8670 -0.2302
 3984SOL    HW112130   0.645   4.786   1.378 -0.3720 -0.4660 -0.9022
 3984SOL    HW212131   0.562   4.646   1.366  0.1784 -0.8729 -0.0629
 3985SOL     OW12132   3.579   1.713   7.929 -0.4016 -0.1722  0.2745
 3985SOL    HW112133   3.581   1.686   7.833 -1.4138 -0.6829  0.3865
 3985SOL    HW212134   3.625   1.644   7.985 -1.4453 -0.8242  0.3576
 3986SOL     OW12135   3.744   7.101   3.487  0.0395 -0.4100  0.1819
 3986SOL    HW112136   3.834   7.142   3.472  1.1498 -2.9771 -0.7827
 3986SOL    HW212137   3.698   7.087   3.399 -0.1104 -1.5639  0.4217
 3987SOL     OW12138   3.932   6.528   4.958 -0.3815 -0.4247 -0.6137
 3987SOL    HW112139   3.880   6.443   4.958 -0.0526 -0.6397  0.6938
 3987SOL    HW212140   4.026   6.510   4.985 -0.3606  0.3805 -0.1017
 3988SOL     OW12141   7.851   8.204   2.974  0.1001 -0.0834  0.2237
 3988SOL    HW112142   7.893   8.290   3.002 -0.5797  0.0297  0.9334
 3988SOL    HW212143   7.752   8.210   2.984  0.1314 -2.2548  4.4366
 3989SOL     OW12144   7.094   5.472   4.478  0.0566 -0.2778 -0.1443
 3989SOL    HW112145   7.175   5.505   4.525 -0.8010  1.0612  0.4444
 3989SOL    HW212146   7.114   5.459   4.381  0.7616  0.7705 -0.1480
 3990SOL     OW12147   2.946   5.786   3.860  0.4716  0.0320 -0.0177
 3990SOL    HW112148   3.018   5.719   3.878  2.0567  1.0283 -2.2308
 3990SOL    HW212149   2.903   5.767   3.772  0.6657  1.6115 -0.4925
 3991SOL     OW12150   8.052   8.519   2.697 -0.1460 -0.5763  0.7007
 3991SOL    HW112151   8.080   8.596   2.754  0.3742 -0.0261 -0.2773
 3991SOL    HW212152   8.111   8.513   2.617 -3.2926  1.2388 -1.9995
 3992SOL     OW12153   0.714   3.474   1.064  0.2006 -0.0306 -0.0153
 3992SOL    HW112154   0.643   3.404   1.069  1.0496 -0.8311  1.3988
 3992SOL    HW212155   0.672   3.564   1.053 -0.9616 -0.5979 -0.3484
 3993SOL     OW12156   4.187   0.041   1.255 -0.0117  0.2200  0.3526
 3993SOL    HW112157   4.169   0.052   1.353 -0.2837 -1.9760  0.6014
 3993SOL    HW212158   4.283   0.017   1.242  0.3296  1.7226 -0.0624
 3994SOL     OW12159   0.131   6.246   6.303 -0.0565  0.0983  0.4074
 3994SOL    HW112160   0.203   6.186   6.336 -1.2600 -1.9535 -0.4577
 3994SOL    HW212161   0.140   6.258   6.204 -0.5017  0.3993  0.3963
 3995SOL     OW12162   4.711   3.502   8.411  0.0824 -0.0379  0.3125
 3995SOL    HW112163   4.709   3.450   8.497 -0.5643 -1.1512 -0.3514
 3995SOL    HW212164   4.756   3.448   8.340 -2.0481 -0.4534 -0.8217
 3996SOL     OW12165   0.631   1.642   5.735 -0.0150  0.4058  0.0007
 3996SOL    HW112166   0.629   1.635   5.835 -1.3115  1.0332  0.0426
 3996SOL    HW212167   0.612   1.552   5.695  2.0817 -0.2039  0.2747
 3997SOL     OW12168   7.180   8.045   8.124  0.1320  0.0102  0.1056
 3997SOL    HW112169   7.138   8.062   8.035  0.5714  1.0657  0.0767
 3997SOL    HW212170   7.280   8.040   8.113  0.2595  1.0998  0.6626
 3998SOL     OW12171   4.880   4.476   4.359 -0.4488 -0.0024  0.2809
 3998SOL    HW112172   4.949   4.497   4.427  1.2424 -0.0470 -1.3471
 3998SOL    HW212173   4.791   4.465   4.404 -0.0608  3.1156  2.0830
 3999SOL     OW12174   0.480   6.017   4.650 -0.9050  0.3232 -0.0656
 3999SOL    HW112175   0.382   6.002   4.636 -0.9542  0.8351 -0.2781
 3999SOL    HW212176   0.502   6.114   4.637 -0.4700  0.3188  0.5985
 4000SOL     OW12177   6.410   7.939   0.059  0.3234  0.0317 -0.0454
 4000SOL    HW112178   6.353   7.990   0.124 -0.4633  1.0971 -1.5108
 4000SOL    HW212179   6.483   7.892   0.108  1.5052  3.0830  1.3750
 4001SOL     OW12180   7.896   7.602   3.307 -0.3660  0.1338 -0.2639
 4001SOL    HW112181   7.894   7.514   3.259 -3.5121  0.0664 -0.2098
 4001SOL    HW212182   7.943   7.670   3.250  1.8187 -1.4148 -0.4589
 4002SOL     OW12183   6.360   3.380   3.344  0.0452  0.1754 -0.4725
 4002SOL    HW112184   6.434   3.396   3.410  0.9805 -0.9314 -1.2167
 4002SOL    HW212185   6.273   3.408   3.385  0.5282 -0.9315  1.4297
 4003SOL     OW12186   3.827   2.992   2.478  0.1476  0.3480  0.7738
 4003SOL    HW112187   3.774   3.034   2.552 -0.3889  0.2770  0.4297
 4003SOL    HW212188   3.902   3.052   2.452 -0.3662  0.9055  0.5731
 4004SOL     OW12189   4.833   7.466   6.418  0.2471 -0.3411 -0.2581
 4004SOL    HW112190   4.853   7.503   6.328 -0.1764  0.6771  0.0443
 4004SOL    HW212191   4.735   7.447   6.425  0.2593 -0.3130  0.0115
 4005SOL     OW12192   4.552   3.104   8.644  0.6797 -0.2923  0.5080
 4005SOL    HW112193   4.571   3.196   8.680  0.0367  0.4073 -0.8681
 4005SOL    HW212194   4.500   3.112   8.559 -0.3650 -1.9736  0.9485
 4006SOL     OW12195   2.142   4.448   6.423  0.0768  0.2163  0.1920
 4006SOL    HW112196   2.219   4.437   6.487  0.3964  3.7362  0.5817
 4006SOL    HW212197   2.166   4.407   6.335  2.1607  0.6169  0.5175
 4007SOL     OW12198   8.285   5.928   5.336 -0.2512  0.0959 -0.1201
 4007SOL    HW112199   8.255   5.948   5.429 -0.8183  1.9754 -0.6683
 4007SOL    HW212200   8.247   5.996   5.273  1.5797 -0.0716 -1.4799
 4008SOL     OW12201   7.019   3.533   5.441  0.3011  0.0660  0.5485
 4008SOL    HW112202   7.073   3.464   5.392  1.9943  0.8880  1.1701
 4008SOL    HW212203   6.953   3.487   5.501  1.8725 -1.0943  1.4893
 4009SOL     OW12204   1.878   2.457   3.496 -0.3632 -0.8736  0.7231
 4009SOL    HW112205   1.904   2.390   3.425  3.1406  0.1142  0.8850
 4009SOL    HW212206   1.889   2.415   3.586  0.8424 -0.4555  0.7916
 4010SOL     OW12207   7.828   8.755   7.317  1.0614 -0.3503 -0.3694
 4010SOL    HW112208   7.749   8.807   7.349 -0.4472 -2.8842  0.3946
 4010SOL    HW212209   7.891   8.740   7.393  0.3944 -1.4027  0.0105
 4011SOL     OW12210   7.061   0.623   4.766 -0.1053 -0.0148 -0.6517
 4011SOL    HW112211   7.074   0.642   4.863 -1.5900  0.0750 -0.4535
 4011SOL    HW212212   7.041   0.526   4.754 -2.5108  0.4097 -0.5433
 4012SOL     OW12213   8.114   2.146   8.173 -0.4871 -0.1581  0.5024
 4012SOL    HW112214   8.180   2.071   8.169 -0.0854  0.2349 -1.3081
 4012SOL    HW212215   8.095   2.169   8.268  1.4989 -0.7117  1.0870
 4013SOL     OW12216   2.261   8.497   6.391  0.9154  0.0462  0.0599
 4013SOL    HW112217   2.352   8.510   6.431  0.8672 -1.1284  0.5907
 4013SOL    HW212218   2.196   8.557   6.438  1.1270 -0.2961  0.8241
 4014SOL     OW12219   2.678   1.244   4.213  0.3873 -0.4153 -0.4132
 4014SOL    HW112220   2.677   1.344   4.211  0.5552 -0.3554  1.2839
 4014SOL    HW212221   2.697   1.213   4.306  2.1549 -2.0350 -1.2532
 4015SOL     OW12222   2.974   3.146   4.551  0.4861 -0.1376 -0.0037
 4015SOL    HW112223   3.052   3.097   4.513  0.6179  0.8347 -1.0444
 4015SOL    HW212224   2.968   3.129   4.650  2.4873  0.3892  0.2475
 4016SOL     OW12225   5.440   5.484   3.250 -0.8946  0.0533  0.6928
 4016SOL    HW112226   5.537   5.473   3.269 -0.9262 -0.1847  0.7203
 4016SOL    HW212227   5.423   5.470   3.152 -0.5288  2.6444  0.1894
 4017SOL     OW12228   4.795   1.604   7.756  0.3610  0.0514 -0.4056
 4017SOL    HW112229   4.734   1.577   7.683 -0.6365  0.6240  0.1936
 4017SOL    HW212230   4.764   1.691   7.795  0.2347 -0.7501  1.3961
 4018SOL     OW12231   7.012   2.254   3.656 -0.4409 -0.1792 -0.3663
 4018SOL    HW112232   6.993   2.172   3.603 -0.4497  0.0060 -0.6484
 4018SOL    HW212233   7.109   2.276   3.649 -0.4593 -0.1024 -0.3805
 4019SOL     OW12234   6.373   3.543   6.192 -0.9389 -0.1534 -0.2050
 4019SOL    HW112235   6.374   3.624   6.134  1.6774  2.6451  3.2925
 4019SOL    HW212236   6.312   3.557   6.270 -1.4181 -2.1511 -0.1548
 4020SOL     OW12237   7.803   0.307   1.828 -0.0329 -0.6096  0.4675
 4020SOL    HW112238   7.885   0.307   1.884  1.0178 -0.4960 -1.0288
 4020SOL    HW212239   7.740   0.236   1.861 -0.1800  0.5032  2.7580
 4021SOL     OW12240   2.771   3.756   5.915 -0.2508  0.3620 -0.2583
 4021SOL    HW112241   2.757   3.659   5.898 -1.9235  0.7486 -1.3175
 4021SOL    HW212242   2.781   3.804   5.828 -2.9429  1.5711 -0.0088
 4022SOL     OW12243   2.704   6.428   4.768 -0.3507 -0.5449 -0.1382
 4022SOL    HW112244   2.632   6.498   4.770 -0.6435 -0.8344  2.1247
 4022SOL    HW212245   2.793   6.472   4.763 -0.5588 -0.0161  0.6167
 4023SOL     OW12246   8.661   3.848   1.541 -0.5455 -0.0062 -0.0437
 4023SOL    HW112247   8.678   3.936   1.495 -1.2803 -0.2089 -0.7229
 4023SOL    HW212248   8.747   3.815   1.580 -0.6673  2.1338  2.3091
 4024SOL     OW12249   4.368   8.756   7.356 -0.6020 -1.0159  0.1913
 4024SOL    HW112250   4.281   8.803   7.345 -0.6721 -0.9818  0.8688
 4024SOL    HW212251   4.396   8.716   7.268 -0.6339  0.1067 -0.3483
 4025SOL     OW12252   1.823   1.274   3.391  0.2718  0.6187  0.4873
 4025SOL    HW112253   1.919   1.288   3.412  0.3264  0.5878  0.2535
 4025SOL    HW212254   1.798   1.179   3.410  0.2033  0.7138  0.8769
 4026SOL     OW12255   0.492   2.142   0.876 -0.0200  0.4467  0.2915
 4026SOL    HW112256   0.460   2.049   0.892 -1.9481  1.1537  0.8276
 4026SOL    HW212257   0.532   2.178   0.961 -0.7691  0.6429  0.5720
 4027SOL     OW12258   6.526   8.196   8.074 -0.3747  0.2207 -0.3994
 4027SOL    HW112259   6.569   8.132   8.010 -1.4458 -0.9787  0.0341
 4027SOL    HW212260   6.595   8.260   8.110  0.4663  0.1280 -1.8039
 4028SOL     OW12261   6.392   5.746   6.891 -0.3102 -0.5993  0.1508
 4028SOL    HW112262   6.417   5.840   6.865  0.2722 -0.7584  0.1205
 4028SOL    HW212263   6.442   5.720   6.973 -0.8357 -0.7150  0.4354
 4029SOL     OW12264   4.503   0.370   8.020 -0.5640 -0.3902 -0.3250
 4029SOL    HW112265   4.473   0.313   8.096 -1.4262  1.3015  0.6751
 4029SOL    HW212266   4.577   0.324   7.970 -1.1926 -2.3138  0.4250
 4030SOL     OW12267   2.862   5.506   5.209 -0.2784  0.3273 -0.1671
 4030SOL    HW112268   2.792   5.565   5.249  1.2913  0.5990  2.4064
 4030SOL    HW212269   2.923   5.560   5.152  0.0973  0.8692  0.7308
 4031SOL     OW12270   2.252   1.054   7.394  0.1970 -0.1287  0.4576
 4031SOL    HW112271   2.231   0.986   7.324  3.3136 -1.0120  0.2493
 4031SOL    HW212272   2.294   1.009   7.472  1.2200  1.4128  0.8318
 4032SOL     OW12273   6.806   4.365   8.377  0.4188 -0.0185  0.2142
 4032SOL    HW112274   6.731   4.347   8.441 -0.4124 -0.8718 -0.9433
 4032SOL    HW212275   6.774   4.426   8.305  1.0543  0.1667  0.0843
 4033SOL     OW12276   8.766   7.645   3.206  0.2021  0.4710  0.4750
 4033SOL    HW112277   8.761   7.702   3.288 -0.9053  0.4229  0.4432
 4033SOL    HW212278   8.676   7.609   3.184  0.9457 -1.7466  0.8073
 4034SOL     OW12279   5.319   2.070   1.318  0.2463 -0.1811  0.0468
 4034SOL    HW112280   5.344   2.079   1.222  0.9798  0.0400  0.2446
 4034SOL    HW212281   5.301   2.161   1.356  2.8257  0.0897  0.8236
 4035SOL     OW12282   2.137   1.460   1.521 -0.3490  0.3541 -0.0960
 4035SOL    HW112283   2.088   1.531   1.571 -0.5106 -0.1684  0.4968
 4035SOL    HW212284   2.074   1.413   1.459  0.1979  2.1296 -2.1158
 4036SOL     OW12285   1.326   5.828   8.821  0.2756  0.2252  0.2024
 4036SOL    HW112286   1.263   5.754   8.799  0.9850 -0.5387  0.7187
 4036SOL    HW212287   1.380   5.804   8.901 -0.7965  2.1059  1.5506
 4037SOL     OW12288   5.657   8.286   8.182 -0.4955  0.3039  0.2405
 4037SOL    HW112289   5.695   8.248   8.266 -1.4793 -0.0810  0.5230
 4037SOL    HW212290   5.619   8.213   8.125  1.1021  0.4295 -1.0533
 4038SOL     OW12291   4.797   0.912   6.748  0.5536 -0.3206  0.1643
 4038SOL    HW112292   4.810   1.001   6.792  2.2824 -0.5025  0.0862
 4038SOL    HW212293   4.780   0.843   6.818 -0.9214  0.0633  0.2169
 4039SOL     OW12294   2.015   2.379   3.258 -0.2866  0.1609 -0.5269
 4039SOL    HW112295   2.041   2.467   3.296  0.4517  0.0402 -0.7344
 4039SOL    HW212296   2.014   2.384   3.158  2.5654 -0.7653 -0.6981
 4040SOL     OW12297   2.129   1.983   0.315  0.3460 -0.6123  0.0847
 4040SOL    HW112298   2.069   2.052   0.275  2.6736  1.6934  0.2590
 4040SOL    HW212299   2.142   1.908   0.250 -2.1798 -0.9277 -0.1556
 4041SOL     OW12300   0.549   0.492   0.483  0.2054  0.2505  0.6068
 4041SOL    HW112301   0.639   0.536   0.475 -0.7043  1.8597 -2.0558
 4041SOL    HW212302   0.481   0.561   0.508 -0.5341 -0.6936  1.2536
 4042SOL     OW12303   1.713   0.789   7.230 -0.5837  0.2306  0.2467
 4042SOL    HW112304   1.722   0.786   7.131 -3.3799  0.1792 -0.0811
 4042SOL    HW212305   1.637   0.849   7.255 -0.2209 -0.1094  2.3337
 4043SOL     OW12306   7.636   4.562   5.953 -0.0738  0.2914  0.2579
 4043SOL    HW112307   7.584   4.551   6.038  0.3125 -0.4747  0.3984
 4043SOL    HW212308   7.596   4.504   5.883 -0.9517  1.5877 -0.3622
 4044SOL     OW12309   1.047   2.175   1.857 -0.2547 -0.1223 -0.4935
 4044SOL    HW112310   1.074   2.259   1.904 -0.6146 -0.9913  1.3641
 4044SOL    HW212311   1.056   2.188   1.758  0.1547  1.9201 -0.2393
 4045SOL     OW12312   2.241   6.800   2.715  0.0329  0.0710 -0.1673
 4045SOL    HW112313   2.229   6.898   2.702 -2.7875  0.5033  3.7248
 4045SOL    HW212314   2.337   6.776   2.704  1.2717  3.7595  1.1843
 4046SOL     OW12315   7.999   7.635   6.446  0.3533 -0.3216 -0.5005
 4046SOL    HW112316   8.001   7.688   6.361 -0.8301 -0.4710 -0.6362
 4046SOL    HW212317   8.086   7.646   6.494  0.3116  1.4031 -0.7473
 4047SOL     OW12318   5.913   4.969   4.446  0.4505  0.5142 -0.0169
 4047SOL    HW112319   5.949   4.963   4.539 -0.3046  1.6180  0.3729
 4047SOL    HW212320   5.980   5.014   4.387 -0.0351  2.1269  0.5970
 4048SOL     OW12321   7.087   7.939   0.434  0.8112  0.1595 -0.2386
 4048SOL    HW112322   7.000   7.953   0.481  1.1508 -0.0321  0.4617
 4048SOL    HW212323   7.102   7.841   0.419  1.0140  0.1742 -0.1436
 4049SOL     OW12324   3.818   3.507   0.792 -0.2700  0.2011  0.1010
 4049SOL    HW112325   3.747   3.498   0.722  0.7017  0.5572 -0.9581
 4049SOL    HW212326   3.794   3.581   0.854 -0.9731  0.1177 -0.0626
 4050SOL     OW12327   5.508   5.331   1.082 -0.4349  0.2292 -0.2022
 4050SOL    HW112328   5.569   5.264   1.039  0.8597 -0.8222  2.8989
 4050SOL    HW212329   5.561   5.412   1.109 -1.2664  1.0147 -0.8928
 4051SOL     OW12330   4.822   4.477   1.971  0.3590 -0.4435  0.7927
 4051SOL    HW112331   4.773   4.409   2.024  0.1782 -0.6773  0.3356
 4051SOL    HW212332   4.792   4.569   1.997 -2.4733 -0.5979 -1.4067
 4052SOL     OW12333   6.698   4.580   1.018 -0.1512  0.0831  0.6096
 4052SOL    HW112334   6.601   4.598   0.998  0.2437  2.9035  0.8842
 4052SOL    HW212335   6.755   4.640   0.963  1.4613 -1.1486  0.8805
 4053SOL     OW12336   5.381   1.418   4.076  0.1646 -0.4236 -0.2687
 4053SOL    HW112337   5.425   1.443   4.162  0.8363  3.2205 -1.5204
 4053SOL    HW212338   5.430   1.341   4.035  2.2220  0.2483  0.7965
 4054SOL     OW12339   3.176   1.335   1.313  0.6278 -0.0615  0.0331
 4054SOL    HW112340   3.182   1.235   1.322  0.8735 -0.0684 -0.1970
 4054SOL    HW212341   3.163   1.359   1.217  0.8235  0.1397  0.0568
 4055SOL     OW12342   6.698   2.875   2.774 -0.1330 -0.0999 -0.0606
 4055SOL    HW112343   6.677   2.878   2.676  1.2479  0.4565 -0.3609
 4055SOL    HW212344   6.748   2.957   2.799  1.3362 -1.1868  0.6750
 4056SOL     OW12345   2.259   6.577   3.670  0.0061 -0.3209 -0.4538
 4056SOL    HW112346   2.241   6.651   3.605 -1.3091 -2.2225 -2.4003
 4056SOL    HW212347   2.191   6.580   3.744 -0.0500  0.3810 -0.5278
 4057SOL     OW12348   0.567   2.450   1.799  0.4027 -0.3767  0.0805
 4057SOL    HW112349   0.661   2.458   1.831 -0.1598 -0.1112  1.8086
 4057SOL    HW212350   0.521   2.377   1.850 -0.6384  0.2892  0.1279
 4058SOL     OW12351   3.117   0.127   6.994 -0.1024  0.2774  0.4734
 4058SOL    HW112352   3.176   0.201   6.963 -0.4138 -0.1904 -1.3952
 4058SOL    HW212353   3.150   0.040   6.956 -1.2405 -0.1583  0.4452
 4059SOL     OW12354   7.303   7.001   8.577 -0.2624  0.3437 -0.2556
 4059SOL    HW112355   7.219   7.050   8.555 -0.1579  1.3915  1.5372
 4059SOL    HW212356   7.361   7.058   8.635  1.0811 -0.8901 -0.3237
 4060SOL     OW12357   2.593   1.427   5.623  0.6652  0.4084 -0.3089
 4060SOL    HW112358   2.627   1.352   5.566 -0.5157 -0.8957  0.6399
 4060SOL    HW212359   2.548   1.390   5.704  2.8432  2.1831  1.8793
 4061SOL     OW12360   1.499   7.997   0.947  0.1157  0.0183 -0.3029
 4061SOL    HW112361   1.507   8.082   0.895  1.2374  0.5761  0.7310
 4061SOL    HW212362   1.534   7.922   0.892  1.7474  0.6751 -0.2216
 4062SOL     OW12363   1.436   4.838   0.938  0.0688 -0.0269 -0.1365
 4062SOL    HW112364   1.459   4.913   1.000  0.3681 -0.6125  0.4709
 4062SOL    HW212365   1.509   4.826   0.871 -0.4086  0.8277 -0.8325
 4063SOL     OW12366   7.715   0.292   3.224  0.2998 -0.4431 -0.3136
 4063SOL    HW112367   7.700   0.389   3.242 -0.3316 -0.4182 -0.8923
 4063SOL    HW212368   7.809   0.267   3.245 -0.3726 -0.4935  3.1949
 4064SOL     OW12369   1.798   2.996   1.532 -0.0449  0.8863  0.5496
 4064SOL    HW112370   1.844   3.079   1.563 -1.5270  1.2375  1.9220
 4064SOL    HW212371   1.847   2.916   1.566 -0.9688  1.2576  2.9283
 4065SOL     OW12372   8.164   4.370   7.840 -0.3422  0.5815 -0.0125
 4065SOL    HW112373   8.164   4.410   7.749  0.2535  0.8521  0.1016
 4065SOL    HW212374   8.236   4.301   7.846 -0.0596  0.9022  0.3881
 4066SOL     OW12375   1.801   4.029   5.974  0.2205 -0.3802 -0.5324
 4066SOL    HW112376   1.844   3.971   6.042  0.0411  0.9708  0.7877
 4066SOL    HW212377   1.826   4.124   5.990 -0.6302  0.0813 -1.7478
 4067SOL     OW12378   6.060   4.483   1.896 -0.3643 -0.0121 -0.1714
 4067SOL    HW112379   6.037   4.439   1.809 -0.9659 -1.0597  0.4870
 4067SOL    HW212380   6.158   4.477   1.912 -0.5388 -2.0605  0.3599
 4068SOL     OW12381   2.325   2.199   7.312  0.5151  0.4235 -0.0217
 4068SOL    HW112382   2.293   2.105   7.301  1.2114  0.1854 -0.0160
 4068SOL    HW212383   2.246   2.260   7.317  0.0558 -0.1754  0.1369
 4069SOL     OW12384   3.784   6.305   4.314  0.0166 -0.1579 -0.2650
 4069SOL    HW112385   3.719   6.302   4.390 -0.0461 -1.0013 -0.3506
 4069SOL    HW212386   3.737   6.286   4.229  0.5892 -2.1898 -0.1775
 4070SOL     OW12387   0.389   1.760   5.945 -0.1954  0.4545  0.9587
 4070SOL    HW112388   0.351   1.691   5.883 -0.0989 -0.2775  1.6904
 4070SOL    HW212389   0.485   1.740   5.963  0.4928  2.1212 -0.6319
 4071SOL     OW12390   5.299   7.018   4.454  0.3377  0.5956 -0.7161
 4071SOL    HW112391   5.200   7.013   4.437 -0.2385 -0.6759  2.3974
 4071SOL    HW212392   5.328   7.114   4.449 -1.8036  1.4830  1.5301
 4072SOL     OW12393   7.997   8.184   6.198 -0.2733  0.5593 -0.3956
 4072SOL    HW112394   7.950   8.249   6.258 -1.7035  0.2117 -1.1043
 4072SOL    HW212395   7.975   8.204   6.103  1.6836  0.8668 -0.8304
 4073SOL     OW12396   3.765   8.258   2.419  0.1726  0.1728 -0.2307
 4073SOL    HW112397   3.714   8.203   2.485 -0.1239  0.6746 -0.0394
 4073SOL    HW212398   3.801   8.340   2.464  0.5514  0.1741 -0.5307
 4074SOL     OW12399   6.869   3.637   1.648 -1.2700  0.7751  0.5588
 4074SOL    HW112400   6.830   3.588   1.570  1.3727  0.6922 -0.8186
 4074SOL    HW212401   6.896   3.572   1.718  1.3702  0.1967 -0.8723
 4075SOL     OW12402   2.199   0.164   1.972 -0.1569  0.3008  0.1935
 4075SOL    HW112403   2.238   0.130   1.887 -1.4831  0.4193 -0.4799
 4075SOL    HW212404   2.155   0.088   2.021 -1.0534  0.5768 -0.1637
 4076SOL     OW12405   1.182   6.400   1.735  0.3578  0.2249 -0.5819
 4076SOL    HW112406   1.241   6.333   1.689  0.5461  0.0453 -0.0938
 4076SOL    HW212407   1.086   6.375   1.722  0.4234 -0.0541 -0.5377
 4077SOL     OW12408   8.499   6.556   8.133 -0.5793 -0.1918  0.5773
 4077SOL    HW112409   8.407   6.517   8.126 -1.5489  2.2300 -1.6567
 4077SOL    HW212410   8.495   6.645   8.177  0.8504 -0.4197  1.2229
 4078SOL     OW12411   3.371   3.822   6.082  0.2367 -0.0223 -0.3874
 4078SOL    HW112412   3.357   3.902   6.023 -2.1542  0.4120  0.6501
 4078SOL    HW212413   3.283   3.775   6.096  1.0580 -1.1272  1.3812
 4079SOL     OW12414   5.770   5.123   0.185 -0.3600 -0.1342 -0.6166
 4079SOL    HW112415   5.862   5.116   0.145  0.6639  0.6130  1.4682
 4079SOL    HW212416   5.766   5.069   0.268 -1.1426  1.4244  0.4060
 4080SOL     OW12417   8.171   2.688   7.147  0.3249  0.4869 -0.3516
 4080SOL    HW112418   8.257   2.727   7.116  0.7384 -1.5867 -1.9977
 4080SOL    HW212419   8.100   2.760   7.148  1.2249  1.4676 -2.4148
 4081SOL     OW12420   6.369   2.846   3.414 -0.6436 -0.2339 -0.5880
 4081SOL    HW112421   6.348   2.853   3.316 -2.0664  0.3465 -0.2696
 4081SOL    HW212422   6.375   2.938   3.452 -1.3837 -0.4665  0.1143
 4082SOL     OW12423   3.927   3.129   8.615 -0.2632 -0.2887 -0.0420
 4082SOL    HW112424   3.828   3.114   8.614  0.0488 -2.6946 -1.2144
 4082SOL    HW212425   3.959   3.147   8.522  0.3103  1.6318  0.4746
 4083SOL     OW12426   6.777   4.405   2.737 -0.0501 -0.0175  0.0253
 4083SOL    HW112427   6.803   4.501   2.726  1.4698 -0.1997  1.6119
 4083SOL    HW212428   6.795   4.375   2.831 -1.9599 -1.4576 -0.0012
 4084SOL     OW12429   4.659   2.486   1.251 -0.4815  0.1119 -0.1266
 4084SOL    HW112430   4.585   2.420   1.241 -0.8361  0.5792 -0.6946
 4084SOL    HW212431   4.637   2.569   1.199 -0.8446  1.3777  1.9142
 4085SOL     OW12432   7.522   6.340   4.145  0.0838 -0.3450 -0.2078
 4085SOL    HW112433   7.533   6.262   4.083  2.8391 -0.3620  0.1904
 4085SOL    HW212434   7.559   6.423   4.102  0.8982 -0.1080  0.9042
 4086SOL     OW12435   5.664   2.349   8.167  0.3047  0.1652 -0.1409
 4086SOL    HW112436   5.637   2.411   8.241 -0.4127 -0.3707  0.0658
 4086SOL    HW212437   5.743   2.295   8.196  0.5269  0.5228 -0.0731
 4087SOL     OW12438   0.548   7.561   6.275 -0.3804  0.3717 -0.0562
 4087SOL    HW112439   0.501   7.640   6.314 -0.2871 -0.4881  1.8790
 4087SOL    HW212440   0.480   7.501   6.232 -0.5499  1.0472 -0.7644
 4088SOL     OW12441   2.269   5.173   1.759 -0.6037  0.2465  0.3724
 4088SOL    HW112442   2.197   5.214   1.816 -0.0364 -0.9205  2.0284
 4088SOL    HW212443   2.344   5.142   1.818  0.4705 -0.1293 -1.1432
 4089SOL     OW12444   2.021   7.651   0.141 -0.4178  0.2022  0.5088
 4089SOL    HW112445   2.063   7.616   0.224 -0.0703  0.0973  0.2920
 4089SOL    HW212446   2.087   7.646   0.066 -0.4410  1.0953  0.4205
 4090SOL     OW12447   3.518   8.828   0.060  0.8198  0.5426 -0.1151
 4090SOL    HW112448   3.472   8.910   0.026  0.1631 -1.1185 -3.6677
 4090SOL    HW212449   3.616   8.834   0.040  0.8923  0.7597  0.2987
 4091SOL     OW12450   1.932   5.073   1.487 -0.2810  0.1900 -0.1975
 4091SOL    HW112451   1.948   5.074   1.389 -1.7618 -0.7646 -0.4835
 4091SOL    HW212452   1.896   4.984   1.514  1.0455  0.0842  1.3919
 4092SOL     OW12453   8.289   7.387   7.393  0.0353  0.2246  0.1628
 4092SOL    HW112454   8.204   7.432   7.418 -0.4652  0.4458 -1.7946
 4092SOL    HW212455   8.362   7.418   7.455 -1.1002  0.6741  1.3274
 4093SOL     OW12456   3.736   6.484   6.461 -0.7228 -0.0122 -0.2791
 4093SOL    HW112457   3.792   6.566   6.475 -0.1496 -0.4596  0.0822
 4093SOL    HW212458   3.648   6.511   6.422 -0.3305  0.7185 -0.6880
 4094SOL     OW12459   1.399   5.642   8.416  0.0737  0.4052  0.4533
 4094SOL    HW112460   1.445   5.607   8.334  1.7101  0.7735  1.1727
 4094SOL    HW212461   1.448   5.610   8.497 -1.7281 -0.2627  1.3439
 4095SOL     OW12462   2.556   6.595   4.603 -0.2832  0.3046  0.3969
 4095SOL    HW112463   2.481   6.549   4.555 -0.2814 -0.6650  1.2732
 4095SOL    HW212464   2.643   6.560   4.570 -0.0894  2.5389 -1.7392
 4096SOL     OW12465   8.716   1.304   0.889 -0.4277  0.0298 -0.1900
 4096SOL    HW112466   8.645   1.374   0.874  0.6425  1.4456  0.9959
 4096SOL    HW212467   8.686   1.217   0.850 -2.5637  0.7179 -0.2190
 4097SOL     OW12468   7.217   3.964   7.406 -0.6750  0.4560 -0.0347
 4097SOL    HW112469   7.223   3.865   7.405  1.6943  0.5208  0.8225
 4097SOL    HW212470   7.275   4.002   7.333  0.2505  1.2126  1.0549
 4098SOL     OW12471   7.771   2.864   1.859  0.4862 -0.3169  0.6177
 4098SOL    HW112472   7.814   2.862   1.949 -0.0900 -2.0774  0.8923
 4098SOL    HW212473   7.676   2.895   1.868  0.2890 -0.9194  0.7107
 4099SOL     OW12474   4.895   3.639   6.803  0.0824  0.9094 -0.7145
 4099SOL    HW112475   4.900   3.539   6.802  1.9132  0.9520  0.0977
 4099SOL    HW212476   4.853   3.669   6.889 -3.2248  0.8373 -2.1719
 4100SOL     OW12477   6.835   0.020   5.553 -0.0388 -0.1079  0.6239
 4100SOL    HW112478   6.823  -0.026   5.465 -0.6750 -0.7283  1.0231
 4100SOL    HW212479   6.932   0.020   5.578  0.2762  0.8727 -0.4857
 4101SOL     OW12480   8.092   1.399   2.246  0.1824  0.2573 -0.0241
 4101SOL    HW112481   8.032   1.418   2.168 -0.4258 -0.6495  0.2136
 4101SOL    HW212482   8.038   1.365   2.323  0.7811  1.0958  0.7908
 4102SOL     OW12483   8.508   6.665   1.213 -0.1673 -0.4287  0.7756
 4102SOL    HW112484   8.439   6.717   1.163  2.2794  0.7174 -1.7295
 4102SOL    HW212485   8.520   6.703   1.304 -2.5184 -0.4551  1.1501
 4103SOL     OW12486   7.400   2.520   7.411 -0.5877  0.4035  0.6505
 4103SOL    HW112487   7.462   2.458   7.458  0.4449  1.2920  0.5143
 4103SOL    HW212488   7.381   2.599   7.469 -0.8449  0.5829  0.3288
 4104SOL     OW12489   0.577   7.228   4.196 -0.7937  0.5077 -0.5880
 4104SOL    HW112490   0.508   7.280   4.145  0.2899 -0.0853 -2.7840
 4104SOL    HW212491   0.665   7.277   4.193  0.3127 -1.4115 -2.8935
 4105SOL     OW12492   8.340   6.832   4.290  0.3799  0.0098  0.2778
 4105SOL    HW112493   8.269   6.896   4.258 -3.0014 -2.3703  2.3056
 4105SOL    HW212494   8.328   6.744   4.246  4.4856  0.3057 -1.9031
 4106SOL     OW12495   6.765   5.792   1.919 -0.0617  0.1561 -0.1247
 4106SOL    HW112496   6.755   5.811   1.821  1.9805 -1.6221 -0.7654
 4106SOL    HW212497   6.824   5.861   1.960  0.2452  0.1155 -0.4857
 4107SOL     OW12498   0.803   6.499   7.894  0.3094 -0.3605  0.2585
 4107SOL    HW112499   0.798   6.437   7.972 -1.1527 -1.0188 -0.3200
 4107SOL    HW212500   0.747   6.463   7.819  0.0300  1.2754 -0.3593
 4108SOL     OW12501   4.790   2.151   1.060  0.5176  0.1157 -0.7091
 4108SOL    HW112502   4.842   2.117   0.981  1.2457 -1.4958  0.4122
 4108SOL    HW212503   4.823   2.242   1.085  1.6717 -0.1944 -1.0438
 4109SOL     OW12504   8.531   2.977   0.137 -0.1374 -0.2256  0.2054
 4109SOL    HW112505   8.481   2.970   0.223 -0.8644 -0.0260 -0.1982
 4109SOL    HW212506   8.479   3.032   0.072  0.9479  0.6479  0.0351
 4110SOL     OW12507   4.509   0.111   5.203 -0.3571 -0.1922  0.6150
 4110SOL    HW112508   4.478   0.016   5.205 -1.4603  0.1584  1.1527
 4110SOL    HW212509   4.547   0.132   5.113  0.4863 -1.3073  0.6843
 4111SOL     OW12510   2.445   0.945   1.217 -0.5106 -0.5962 -0.4064
 4111SOL    HW112511   2.498   0.926   1.135 -1.4144 -0.5681 -1.0043
 4111SOL    HW212512   2.453   1.041   1.241  0.3032 -0.7444 -0.0619
 4112SOL     OW12513   3.425   5.219   6.187 -0.7797  0.4160  0.2463
 4112SOL    HW112514   3.507   5.236   6.240 -0.3245 -0.3503 -0.2012
 4112SOL    HW212515   3.359   5.168   6.242 -0.2719 -0.4612  0.0639
 4113SOL     OW12516   0.553   1.126   0.548 -0.1811  0.0947  0.0875
 4113SOL    HW112517   0.618   1.102   0.477 -1.3708 -1.0196 -0.6653
 4113SOL    HW212518   0.515   1.217   0.529 -0.4186 -0.1541 -0.6650
 4114SOL     OW12519   6.333   6.706   2.998 -0.1041  0.1720 -0.1523
 4114SOL    HW112520   6.238   6.727   3.018  0.1907 -0.3978  2.2451
 4114SOL    HW212521   6.349   6.608   3.012  0.7925  0.2169 -0.7406
 4115SOL     OW12522   7.016   1.195   0.925 -0.5403  0.0769  0.1634
 4115SOL    HW112523   6.942   1.192   0.992 -1.0395 -1.7717 -0.4056
 4115SOL    HW212524   7.078   1.271   0.947 -0.9253 -0.1844  2.4503
 4116SOL     OW12525   1.968   8.296   6.614 -0.4567 -0.0167  0.4049
 4116SOL    HW112526   2.051   8.269   6.663 -0.1877  0.4504  0.2220
 4116SOL    HW212527   1.952   8.234   6.537  0.3998  0.5671 -0.2801
 4117SOL     OW12528   7.713   4.237   0.673 -0.5293  0.2053  0.6297
 4117SOL    HW112529   7.788   4.295   0.705  0.4502 -1.5433  1.7160
 4117SOL    HW212530   7.747   4.144   0.658 -1.9549 -0.0568 -1.3781
 4118SOL     OW12531   4.179   5.586   7.134 -0.4374  0.1437 -0.0053
 4118SOL    HW112532   4.129   5.668   7.163  0.3522  0.8174 -0.5104
 4118SOL    HW212533   4.274   5.610   7.113  0.2849 -1.2032  1.4687
 4119SOL     OW12534   3.411   7.378   8.676 -0.3590  0.3865  0.3491
 4119SOL    HW112535   3.452   7.287   8.667 -0.6087  0.3443 -0.4775
 4119SOL    HW212536   3.429   7.414   8.767 -0.5401 -0.6293  0.7963
 4120SOL     OW12537   4.345   3.244   0.392 -0.5130  0.0873  0.2668
 4120SOL    HW112538   4.294   3.254   0.307  0.0003 -1.3592 -0.2484
 4120SOL    HW212539   4.433   3.291   0.384  0.1468 -1.2145 -0.5780
 4121SOL     OW12540   4.240   5.920   4.246  0.2760  0.3832  0.2398
 4121SOL    HW112541   4.239   5.866   4.162 -0.7731 -2.9351  2.1960
 4121SOL    HW212542   4.182   5.876   4.315 -1.5933  4.6650  1.7987
 4122SOL     OW12543   2.924   5.826   1.017  0.1773 -0.5341 -0.5307
 4122SOL    HW112544   3.000   5.786   1.068 -1.2380 -0.0753  2.0956
 4122SOL    HW212545   2.947   5.920   0.991  0.2440 -0.1012  0.9969
 4123SOL     OW12546   3.899   0.097   7.234  0.0808 -0.1731 -0.2614
 4123SOL    HW112547   3.828   0.084   7.302 -0.6907  1.6755 -0.6498
 4123SOL    HW212548   3.860   0.140   7.152  1.6688  1.1372 -0.3769
 4124SOL     OW12549   6.984   8.267   0.419 -0.6016 -0.3508 -0.4523
 4124SOL    HW112550   7.059   8.277   0.484  0.8577  0.2606 -2.1503
 4124SOL    HW212551   6.921   8.196   0.452 -0.1051  0.1499  1.7369
 4125SOL     OW12552   0.064   6.359   2.241  0.2566  0.0267 -0.0535
 4125SOL    HW112553   0.037   6.432   2.177 -2.8048 -0.6618  0.2822
 4125SOL    HW212554   0.094   6.279   2.189  1.0685  0.6040 -0.4979
 4126SOL     OW12555   4.573   4.448   1.016 -0.5860  0.2189 -0.4494
 4126SOL    HW112556   4.571   4.461   1.115 -2.4581 -1.9208 -0.1398
 4126SOL    HW212557   4.668   4.433   0.987 -0.2263 -1.3332  1.3576
 4127SOL     OW12558   7.076   6.649   4.146 -0.2344 -0.5952 -0.0859
 4127SOL    HW112559   7.164   6.603   4.136  0.1432 -0.2947  1.5362
 4127SOL    HW212560   7.002   6.585   4.125  0.3461 -0.7727 -1.7481
 4128SOL     OW12561   5.647   4.037   4.967 -0.3174 -0.1363  0.0884
 4128SOL    HW112562   5.582   4.066   4.897  0.5977  1.2761 -0.2218
 4128SOL    HW212563   5.598   3.997   5.044 -1.5950  1.3531  0.0840
 4129SOL     OW12564   7.767   2.136   5.215  0.1880 -0.4526 -0.1440
 4129SOL    HW112565   7.774   2.214   5.277  0.1491  0.2232 -0.9686
 4129SOL    HW212566   7.721   2.060   5.261  0.8032 -0.2208  0.8848
 4130SOL     OW12567   3.495   0.952   0.385  0.6447  0.0831 -0.0747
 4130SOL    HW112568   3.401   0.985   0.375 -0.0748 -2.0603 -0.7881
 4130SOL    HW212569   3.526   0.968   0.479 -1.0211 -0.6346  0.6325
 4131SOL     OW12570   4.764   2.725   0.584  0.3534 -0.3936 -0.6658
 4131SOL    HW112571   4.667   2.728   0.563  0.2101 -0.3993 -0.0240
 4131SOL    HW212572   4.788   2.805   0.639  0.5923 -0.6982 -0.3248
 4132SOL     OW12573   4.577   8.502   7.455 -0.3882  0.0241 -0.2235
 4132SOL    HW112574   4.564   8.497   7.355 -0.6525 -0.4213 -0.1726
 4132SOL    HW212575   4.487   8.507   7.499 -0.3055  4.2133 -0.1456
 4133SOL     OW12576   0.753   7.433   7.365 -0.5716 -0.0881 -0.0695
 4133SOL    HW112577   0.812   7.511   7.383  0.4106 -1.1222  1.4014
 4133SOL    HW212578   0.658   7.456   7.389 -0.2507  0.5591  0.6129
 4134SOL     OW12579   0.257   4.364   3.041 -0.0549  0.2453 -0.2674
 4134SOL    HW112580   0.180   4.423   3.063  0.1315 -0.0133  1.1611
 4134SOL    HW212581   0.226   4.291   2.980 -0.8751  0.2917  0.0836
 4135SOL     OW12582   2.002   7.463   6.367 -0.1778  0.7866 -0.0949
 4135SOL    HW112583   1.972   7.471   6.271 -0.6749  0.8536  0.0598
 4135SOL    HW212584   2.073   7.530   6.385  0.5648  0.1748 -0.6553
 4136SOL     OW12585   8.048   1.230   3.084 -0.0586 -0.0628  0.5860
 4136SOL    HW112586   8.141   1.222   3.048 -0.5228  0.5034 -0.8173
 4136SOL    HW212587   8.041   1.179   3.169  1.4844 -0.2707  0.6241
 4137SOL     OW12588   6.422   0.292   5.454  0.5592  0.1192 -0.2667
 4137SOL    HW112589   6.392   0.266   5.546 -1.7066  2.1908 -0.3297
 4137SOL    HW212590   6.445   0.390   5.452  1.3215 -0.0496 -1.7538
 4138SOL     OW12591   4.390   1.101   5.475  0.8085 -0.3862 -0.1881
 4138SOL    HW112592   4.376   1.010   5.513  2.6182 -0.6693 -0.1325
 4138SOL    HW212593   4.332   1.167   5.523 -0.6127 -1.4922 -0.3048
 4139SOL     OW12594   4.816   0.138   8.462  0.1937  0.1298  0.6592
 4139SOL    HW112595   4.837   0.210   8.529  1.5489 -0.1216  0.5368
 4139SOL    HW212596   4.809   0.179   8.371  1.0128  0.1133  0.5821
 4140SOL     OW12597   0.412   6.125   2.463  0.0109  0.5157  0.4068
 4140SOL    HW112598   0.447   6.151   2.373  1.5220 -0.3661  0.7006
 4140SOL    HW212599   0.350   6.195   2.497  1.1383  1.9439 -0.3797
 4141SOL     OW12600   0.374   3.126   1.854 -0.0310  0.6894 -0.2145
 4141SOL    HW112601   0.463   3.129   1.899  0.5853  1.4844 -1.4356
 4141SOL    HW212602   0.334   3.035   1.866  0.1778  0.8214  1.7491
 4142SOL     OW12603   3.892   1.194   0.425  0.4324 -0.0498  0.5807
 4142SOL    HW112604   3.906   1.211   0.327  0.4353 -0.3029  0.5377
 4142SOL    HW212605   3.981   1.187   0.470  0.4565  1.4997  0.8568
 4143SOL     OW12606   0.562   2.320   2.971 -0.4237  0.6226 -0.1283
 4143SOL    HW112607   0.515   2.238   3.005 -1.1966  0.6168 -1.1754
 4143SOL    HW212608   0.613   2.362   3.046 -1.4049  0.1455  0.8355
 4144SOL     OW12609   1.085   4.987   7.902  0.1934  0.0403 -0.1784
 4144SOL    HW112610   1.044   5.013   7.989  0.6301  0.2709 -0.0351
 4144SOL    HW212611   1.067   5.058   7.834  1.0837  0.5653  0.1183
 4145SOL     OW12612   5.027   5.392   7.264 -0.2401 -0.2063  0.0998
 4145SOL    HW112613   5.007   5.397   7.362  1.2963 -1.3188  0.5009
 4145SOL    HW212614   4.974   5.318   7.223 -1.5682  0.8283 -0.1294
 4146SOL     OW12615   7.463   6.627   6.583 -0.2429  0.3436  0.3130
 4146SOL    HW112616   7.420   6.545   6.545 -0.6286 -0.4484  2.2974
 4146SOL    HW212617   7.494   6.607   6.676  1.7887  1.7816  0.0073
 4147SOL     OW12618   6.382   3.066   4.707  0.0245 -0.0161 -0.4612
 4147SOL    HW112619   6.402   2.972   4.680  0.8824  0.0849 -0.1986
 4147SOL    HW212620   6.326   3.110   4.636 -2.0040 -1.2763  0.2557
 4148SOL     OW12621   7.510   7.662   3.599 -0.0913 -0.2765 -0.2608
 4148SOL    HW112622   7.527   7.721   3.678  0.2468  0.0284 -0.5581
 4148SOL    HW212623   7.590   7.664   3.538 -0.1724 -0.8518 -0.3958
 4149SOL     OW12624   1.741   0.459   4.902 -0.2129 -0.3872  0.0622
 4149SOL    HW112625   1.773   0.371   4.868  0.6330  0.5447 -1.7165
 4149SOL    HW212626   1.790   0.483   4.986 -0.8755 -1.8501  0.8914
 4150SOL     OW12627   2.447   2.424   0.110 -0.3490 -0.2898 -0.2108
 4150SOL    HW112628   2.376   2.482   0.149  0.4686  2.3502 -2.3283
 4150SOL    HW212629   2.429   2.409   0.013  1.0694 -1.0464 -0.3876
 4151SOL     OW12630   7.713   7.238   0.165 -0.2322  0.3960 -0.3877
 4151SOL    HW112631   7.642   7.268   0.229 -2.8490 -0.6232 -2.6084
 4151SOL    HW212632   7.715   7.300   0.086  2.9764  1.6807  0.5407
 4152SOL     OW12633   5.005   6.006   2.202  0.1575  0.0953 -0.0220
 4152SOL    HW112634   5.104   6.019   2.206  0.4832 -1.3786 -2.0005
 4152SOL    HW212635   4.983   5.910   2.218 -1.0686  0.5261  1.1775
 4153SOL     OW12636   7.246   3.900   2.403  0.3326 -0.4276 -0.1186
 4153SOL    HW112637   7.242   3.892   2.303  0.5725 -2.1716 -0.0213
 4153SOL    HW212638   7.246   3.809   2.443 -0.9412  0.2558  1.5387
 4154SOL     OW12639   1.775   2.392   4.809 -0.1189  0.0478  0.6524
 4154SOL    HW112640   1.825   2.317   4.852 -0.0910  0.2797  1.0283
 4154SOL    HW212641   1.697   2.417   4.866 -0.5696 -0.1985  0.1523
 4155SOL     OW12642   3.364   6.638   8.064 -0.0330 -0.0374  0.1706
 4155SOL    HW112643   3.335   6.590   7.980 -1.8042  2.5066 -0.8008
 4155SOL    HW212644   3.322   6.594   8.143  0.5131 -1.6315 -0.3867
 4156SOL     OW12645   8.566   0.188   3.686 -0.1067 -0.3460  0.5659
 4156SOL    HW112646   8.620   0.265   3.653  0.7616 -1.5491 -0.9695
 4156SOL    HW212647   8.475   0.191   3.644 -0.3287  0.2169  1.0724
 4157SOL     OW12648   4.252   5.093   4.783 -0.0984 -0.4942 -0.5834
 4157SOL    HW112649   4.342   5.111   4.824 -0.2031  0.9636 -0.9483
 4157SOL    HW212650   4.188   5.164   4.812 -0.8645 -0.9360 -1.1776
 4158SOL     OW12651   2.211   7.676   0.543 -0.6588  0.3628 -0.4762
 4158SOL    HW112652   2.120   7.691   0.582 -1.5888 -3.0516 -1.0625
 4158SOL    HW212653   2.276   7.659   0.617 -0.1067  3.9307  0.0280
 4159SOL     OW12654   7.228   0.082   0.332 -0.4740 -0.2762 -0.5545
 4159SOL    HW112655   7.254   0.142   0.408 -1.1594 -0.5931 -0.0575
 4159SOL    HW212656   7.163   0.130   0.272 -1.0566 -0.5211 -0.1327
 4160SOL     OW12657   2.803   3.986   6.453  0.0266 -0.0231  0.0848
 4160SOL    HW112658   2.893   3.942   6.461 -0.6214 -1.3803  0.2145
 4160SOL    HW212659   2.793   4.025   6.362  0.0569 -1.5041 -0.5888
 4161SOL     OW12660   8.299   6.554   0.807 -0.2371  0.5638  0.2931
 4161SOL    HW112661   8.364   6.629   0.819  0.9754 -0.2834 -0.7301
 4161SOL    HW212662   8.282   6.540   0.710  0.2376 -1.0247  0.4063
 4162SOL     OW12663   1.393   5.859   3.394 -0.0156 -0.0179 -0.3574
 4162SOL    HW112664   1.371   5.912   3.312 -0.2015  0.9582  0.3081
 4162SOL    HW212665   1.486   5.823   3.386  0.2635  0.7462 -0.6489
 4163SOL     OW12666   3.236   7.798   1.762  0.3194 -0.4689 -0.0055
 4163SOL    HW112667   3.235   7.714   1.708  0.6826 -1.1577  1.0549
 4163SOL    HW212668   3.183   7.785   1.846 -1.3289  0.9977 -0.7527
 4164SOL     OW12669   7.702   6.113   0.052  0.1983  0.1380 -0.0714
 4164SOL    HW112670   7.639   6.188   0.029 -2.0182 -0.8194  2.2780
 4164SOL    HW212671   7.766   6.144   0.122  0.6246  0.3679 -0.5547
 4165SOL     OW12672   2.325   6.169   7.024  0.0159 -0.5541 -0.0796
 4165SOL    HW112673   2.304   6.095   6.961  1.5960 -0.8889 -0.2550
 4165SOL    HW212674   2.411   6.212   6.998 -0.9093  1.4358 -0.0336
 4166SOL     OW12675   6.467   3.699   8.249  0.3169 -0.2433 -0.2268
 4166SOL    HW112676   6.414   3.625   8.291 -0.2320  0.8624  1.1104
 4166SOL    HW212677   6.410   3.746   8.181 -0.4874  0.9282  1.1919
 4167SOL     OW12678   1.626   2.712   6.654 -0.0720  0.0832 -0.3168
 4167SOL    HW112679   1.606   2.616   6.673  1.1220  0.0578  0.9289
 4167SOL    HW212680   1.545   2.756   6.616 -0.6175 -1.4194 -0.9735
 4168SOL     OW12681   3.205   1.418   3.278 -1.8307  0.1204  0.0877
 4168SOL    HW112682   3.244   1.508   3.298  0.5625 -0.9492  0.5255
 4168SOL    HW212683   3.156   1.384   3.359 -0.2059 -0.1902  0.9848
 4169SOL     OW12684   5.250   2.932   1.281 -0.1641  0.5593  0.3110
 4169SOL    HW112685   5.158   2.918   1.319 -0.3883  0.5902 -0.2097
 4169SOL    HW212686   5.279   3.026   1.299 -0.3661  0.6441  0.2010
 4170SOL     OW12687   7.704   1.535   5.199 -0.0188  0.2190 -0.2401
 4170SOL    HW112688   7.743   1.475   5.129 -0.3929 -1.3921  0.8733
 4170SOL    HW212689   7.730   1.629   5.180  2.4068 -0.5080 -0.8869
 4171SOL     OW12690   7.065   1.629   0.044 -0.1443 -0.3551  0.1687
 4171SOL    HW112691   7.096   1.708   0.096  2.8860 -1.1342 -0.2919
 4171SOL    HW212692   7.004   1.659  -0.029 -0.4279  1.3162  1.0481
 4172SOL     OW12693   3.459   6.638   6.338  0.0595 -0.3189  0.4267
 4172SOL    HW112694   3.477   6.540   6.325  2.2950 -0.0963  1.3654
 4172SOL    HW212695   3.367   6.659   6.307  0.0896 -2.4150 -1.3479
 4173SOL     OW12696   7.812   6.808   1.832  0.0428  0.6116 -0.1603
 4173SOL    HW112697   7.773   6.779   1.745  1.1537 -0.0402 -0.4618
 4173SOL    HW212698   7.912   6.797   1.830  0.3881  3.0515  0.2607
 4174SOL     OW12699   6.584   7.258   7.357 -0.1162 -0.1219 -0.1975
 4174SOL    HW112700   6.518   7.283   7.285 -0.9004 -1.1037  0.1537
 4174SOL    HW212701   6.648   7.333   7.371 -1.7552  1.2799  0.1162
 4175SOL     OW12702   5.180   8.233   1.081 -0.0040 -0.1558 -0.1356
 4175SOL    HW112703   5.175   8.181   0.995  2.4667 -0.5969 -0.0851
 4175SOL    HW212704   5.275   8.238   1.111 -0.5297  2.0230  1.3708
 4176SOL     OW12705   3.127   3.402   0.955  0.3858  0.4959 -0.2319
 4176SOL    HW112706   3.086   3.317   0.986  0.7395 -0.2355 -1.6540
 4176SOL    HW212707   3.063   3.477   0.966  0.2426  0.1485  1.4901
 4177SOL     OW12708   1.297   0.586   5.257  0.5774 -0.2859  0.2787
 4177SOL    HW112709   1.274   0.682   5.238  0.7712 -0.0575  1.1663
 4177SOL    HW212710   1.389   0.566   5.224  0.7826  0.0108  0.6740
 4178SOL     OW12711   2.770   1.570   6.109 -0.1012  0.5922  0.3647
 4178SOL    HW112712   2.751   1.563   6.207 -0.7550  0.8271  0.2605
 4178SOL    HW212713   2.833   1.646   6.093  0.8224 -0.0869  0.6969
 4179SOL     OW12714   1.459   3.203   8.554 -0.3362  0.0208  0.2172
 4179SOL    HW112715   1.515   3.274   8.511 -1.2915  1.1921  0.8686
 4179SOL    HW212716   1.419   3.145   8.483 -0.9657  1.2227 -0.4483
 4180SOL     OW12717   4.874   2.204   0.548  0.4031  0.3050 -1.0715
 4180SOL    HW112718   4.800   2.149   0.510  0.2694 -0.8229  0.6965
 4180SOL    HW212719   4.859   2.300   0.525  0.1427 -0.2341 -3.4502
 4181SOL     OW12720   8.527   1.850   6.375  0.0666 -0.0927 -0.0905
 4181SOL    HW112721   8.549   1.835   6.279  2.8577  2.4352  0.0016
 4181SOL    HW212722   8.609   1.836   6.430 -0.2949  2.7215  1.3291
 4182SOL     OW12723   1.742   3.407   1.110 -0.0460  0.3882  0.8043
 4182SOL    HW112724   1.673   3.338   1.132  0.5413 -1.0734 -1.5968
 4182SOL    HW212725   1.801   3.373   1.037  0.6955  3.2176 -0.0212
 4183SOL     OW12726   5.058   2.221   8.221 -0.3486  0.4536  0.2156
 4183SOL    HW112727   5.061   2.124   8.200  0.4568  0.3234  0.8676
 4183SOL    HW212728   5.101   2.273   8.147  1.1610  0.1244  0.8288
 4184SOL     OW12729   0.830   8.038   3.936  0.1802  0.4471 -0.9048
 4184SOL    HW112730   0.820   8.073   3.844  1.1643  0.7496 -0.9144
 4184SOL    HW212731   0.910   7.977   3.940 -1.3517 -1.6955 -0.8564
 4185SOL     OW12732   4.272   8.589   0.057  0.2682  0.3971 -0.2110
 4185SOL    HW112733   4.354   8.644   0.042  1.6080 -1.1770  1.0050
 4185SOL    HW212734   4.227   8.619   0.141  2.2806 -1.6640  1.7639
 4186SOL     OW12735   0.233   7.358   4.599 -0.7912 -0.2747  0.1094
 4186SOL    HW112736   0.208   7.447   4.636  1.8163  0.1133  1.1687
 4186SOL    HW212737   0.191   7.345   4.509 -1.7758  1.7120  0.2432
 4187SOL     OW12738   6.600   6.885   5.851 -0.0084 -0.2974 -0.2797
 4187SOL    HW112739   6.659   6.960   5.822  0.1147 -0.6047 -0.8515
 4187SOL    HW212740   6.637   6.798   5.817  0.1909 -0.6966  0.8855
 4188SOL     OW12741   3.167   2.400   2.833  0.4584  0.0662  0.7603
 4188SOL    HW112742   3.136   2.468   2.767 -1.0665  0.1418  1.4982
 4188SOL    HW212743   3.230   2.443   2.898  0.9084  0.3180  0.1663
 4189SOL     OW12744   3.185   7.921   7.236  0.2138  0.2521 -0.6841
 4189SOL    HW112745   3.255   7.993   7.237  1.4391 -0.8957 -0.6208
 4189SOL    HW212746   3.158   7.900   7.329 -1.9728  2.2719 -0.7652
 4190SOL     OW12747   7.222   8.251   0.608 -0.4403  0.4837 -0.1874
 4190SOL    HW112748   7.306   8.220   0.564 -0.4549  0.1638  0.0065
 4190SOL    HW212749   7.234   8.253   0.707 -0.3417  1.4020 -0.2078
 4191SOL     OW12750   1.926   3.771   1.280  0.2255 -0.0146  0.4400
 4191SOL    HW112751   1.925   3.671   1.289 -0.7753 -0.3170 -2.0735
 4191SOL    HW212752   1.946   3.796   1.185 -0.5726  2.1546  0.7733
 4192SOL     OW12753   5.536   8.206   0.625  0.1233  0.2258 -0.4108
 4192SOL    HW112754   5.487   8.230   0.709  0.4599  1.0462 -0.4304
 4192SOL    HW212755   5.499   8.260   0.549  1.6194  1.5495 -0.2534
 4193SOL     OW12756   0.124   6.826   3.288 -0.7099 -0.1638  0.5739
 4193SOL    HW112757   0.147   6.913   3.242 -0.3373 -0.2693  0.5520
 4193SOL    HW212758   0.179   6.818   3.371  0.0870 -0.8859  0.0012
 4194SOL     OW12759   7.662   3.918   6.048  0.2162  0.0276  0.1357
 4194SOL    HW112760   7.586   3.878   6.100  1.5978 -1.1984  1.2719
 4194SOL    HW212761   7.747   3.872   6.072  1.1986  0.6975 -1.8555
 4195SOL     OW12762   2.633   2.205   0.630  0.2533  0.0092  0.6190
 4195SOL    HW112763   2.616   2.137   0.702 -2.2056 -0.7942 -0.5934
 4195SOL    HW212764   2.567   2.280   0.640  0.2264  0.1414 -0.4750
 4196SOL     OW12765   7.505   0.569   5.798 -0.6271  0.3826  0.0608
 4196SOL    HW112766   7.527   0.569   5.701  0.6458 -1.3948  0.2996
 4196SOL    HW212767   7.509   0.475   5.833  1.1418  1.2060  2.2986
 4197SOL     OW12768   0.627   3.703   1.600 -0.0135 -0.0916  0.2364
 4197SOL    HW112769   0.619   3.799   1.625 -0.2279  0.3697 -1.4386
 4197SOL    HW212770   0.544   3.654   1.626 -0.2834  0.3892  0.2903
 4198SOL     OW12771   3.961   3.992   0.888  0.1566 -0.5465 -0.0589
 4198SOL    HW112772   4.035   4.058   0.903 -0.3871  0.1452 -0.3735
 4198SOL    HW212773   3.986   3.905   0.930  0.2425  0.2789  1.7022
 4199SOL     OW12774   6.028   7.172   6.981 -0.3711  0.1522  0.0951
 4199SOL    HW112775   6.077   7.184   7.068 -0.1051  0.6797 -0.1243
 4199SOL    HW212776   6.079   7.109   6.922 -0.8244 -0.6301  0.5245
 4200SOL     OW12777   5.020   3.560   6.521  0.1257 -0.6162 -0.6040
 4200SOL    HW112778   5.117   3.561   6.544  0.1682 -0.9922 -0.7590
 4200SOL    HW212779   4.970   3.619   6.584  0.4503 -0.4432 -0.5062
 4201SOL     OW12780   5.486   4.527   0.291 -0.1682 -0.0814  0.6891
 4201SOL    HW112781   5.454   4.503   0.200  1.2991 -1.2127  0.4454
 4201SOL    HW212782   5.430   4.480   0.360  0.5822 -1.6043  0.2890
 4202SOL     OW12783   0.516   6.885   3.606 -0.1576  0.6991  0.3911
 4202SOL    HW112784   0.488   6.833   3.525  1.0025 -1.9002  1.5226
 4202SOL    HW212785   0.435   6.921   3.652 -1.1897 -1.1557  0.1482
 4203SOL     OW12786   2.802   5.266   1.854  0.3842 -0.6415 -0.5138
 4203SOL    HW112787   2.830   5.341   1.794 -0.4276  0.4236  0.3839
 4203SOL    HW212788   2.723   5.295   1.908 -0.6289 -2.5146 -0.8800
 4204SOL     OW12789   7.593   2.522   0.107  0.4057  0.0992  0.0074
 4204SOL    HW112790   7.668   2.564   0.056  0.7286  0.3295  0.6652
 4204SOL    HW212791   7.547   2.455   0.049  1.7357 -0.7618 -0.1098
 4205SOL     OW12792   4.906   7.613   8.531  0.2584 -0.5627  0.1972
 4205SOL    HW112793   4.846   7.692   8.541  0.4382 -0.3462 -0.3872
 4205SOL    HW212794   5.000   7.645   8.518  0.2359 -0.8595 -0.7095
 4206SOL     OW12795   7.340   4.466   2.444  0.0470  0.6367  0.3788
 4206SOL    HW112796   7.427   4.418   2.448 -0.8129 -1.1368 -0.6096
 4206SOL    HW212797   7.339   4.525   2.362  0.2450  0.5097  0.2828
 4207SOL     OW12798   0.867   6.079   8.778  0.2372  0.4709  0.4267
 4207SOL    HW112799   0.845   6.144   8.705 -1.6270  0.4050  0.8823
 4207SOL    HW212800   0.889   5.990   8.738 -0.6475  0.4670 -0.0794
 4208SOL     OW12801   8.048   5.226   7.844  0.2720 -0.1861  0.3445
 4208SOL    HW112802   8.090   5.312   7.872  1.6887  0.0184 -2.1125
 4208SOL    HW212803   8.114   5.152   7.856 -0.3561 -0.6793  0.8538
 4209SOL     OW12804   6.005   1.043   0.295 -0.3643 -0.4999 -0.2276
 4209SOL    HW112805   6.051   0.977   0.355  1.9968  0.5938 -0.7181
 4209SOL    HW212806   6.068   1.072   0.223 -2.0555  0.7074 -1.2972
 4210SOL     OW12807   4.148   7.312   2.154 -0.1561  0.4344  0.1306
 4210SOL    HW112808   4.134   7.380   2.226  0.4039 -0.9660  1.6051
 4210SOL    HW212809   4.157   7.359   2.066  1.4674  2.3696  1.2435
 4211SOL     OW12810   3.746   3.079   8.843 -0.2717  0.0400 -0.1582
 4211SOL    HW112811   3.735   3.038   8.933 -0.5916  0.5647  0.0406
 4211SOL    HW212812   3.724   3.011   8.773 -1.0039 -0.0736  0.1725
 4212SOL     OW12813   1.504   4.054   5.284 -0.3309  0.4917  0.2508
 4212SOL    HW112814   1.455   4.011   5.208 -1.6610  0.7800  0.9147
 4212SOL    HW212815   1.593   4.086   5.252 -0.5497 -0.0660 -0.9913
 4213SOL     OW12816   2.211   3.681   1.236 -0.4784 -0.0122 -0.2405
 4213SOL    HW112817   2.210   3.775   1.202  2.1168  0.7721  1.5572
 4213SOL    HW212818   2.165   3.677   1.325 -0.9537 -0.5417 -0.5072
 4214SOL     OW12819   0.784   1.629   2.823 -0.2824 -0.8789  0.3468
 4214SOL    HW112820   0.819   1.671   2.739  1.0986 -2.8846 -0.1594
 4214SOL    HW212821   0.755   1.700   2.887  2.2105  0.8455 -0.3239
 4215SOL     OW12822   4.060   7.697   5.471  0.1823 -0.7826 -0.1513
 4215SOL    HW112823   4.017   7.723   5.385  0.5292 -1.2321 -0.4662
 4215SOL    HW212824   4.057   7.774   5.535  1.5148  0.1718 -1.1804
 4216SOL     OW12825   5.178   3.108   8.449  0.1967  0.3284 -0.5267
 4216SOL    HW112826   5.172   3.066   8.540 -0.4689  0.4629 -0.5014
 4216SOL    HW212827   5.106   3.071   8.390  1.3914 -0.6839 -1.4066
 4217SOL     OW12828   8.146   8.735   2.880  0.0880  0.6883  0.2998
 4217SOL    HW112829   8.084   8.812   2.900  1.3438  2.1078 -0.9754
 4217SOL    HW212830   8.231   8.770   2.842  0.5461 -1.3904 -0.7418
 4218SOL     OW12831   8.274   8.011   0.536 -0.1161 -0.4288 -0.0173
 4218SOL    HW112832   8.243   7.916   0.541 -0.9518 -0.1696 -0.0674
 4218SOL    HW212833   8.318   8.027   0.448 -2.2334 -0.1488 -1.1011
 4219SOL     OW12834   0.674   3.110   4.472  0.0816 -0.4487 -0.0268
 4219SOL    HW112835   0.758   3.157   4.499  0.0103 -0.6577  0.5829
 4219SOL    HW212836   0.696   3.039   4.405  0.3801 -0.4611  0.0833
 4220SOL     OW12837   4.575   0.487   5.861 -0.0253 -0.3583 -0.6685
 4220SOL    HW112838   4.634   0.537   5.798  0.7563 -1.4505 -0.8319
 4220SOL    HW212839   4.541   0.549   5.932  2.0434  0.1176 -0.0295
 4221SOL     OW12840   1.797   1.882   0.360 -0.3182 -0.0114  0.2925
 4221SOL    HW112841   1.697   1.889   0.362 -0.2742  0.5082  0.6529
 4221SOL    HW212842   1.823   1.789   0.334 -0.8970 -0.1245  0.1136
 4222SOL     OW12843   3.855   6.075   7.316 -0.4607  1.0040 -0.0117
 4222SOL    HW112844   3.758   6.095   7.324 -0.5614  0.5486 -0.0392
 4222SOL    HW212845   3.905   6.121   7.389 -0.8341  0.3525  0.6676
 4223SOL     OW12846   4.623   6.991   5.224  0.0564  0.1788  0.4529
 4223SOL    HW112847   4.663   6.983   5.132 -2.7555  1.5540 -1.0393
 4223SOL    HW212848   4.525   6.970   5.219 -0.0969 -0.0834  3.2550
 4224SOL     OW12849   3.186   7.672   7.127  0.4662 -0.4966 -0.3166
 4224SOL    HW112850   3.173   7.764   7.164 -0.3614 -1.1075  0.9827
 4224SOL    HW212851   3.162   7.604   7.197  2.2119 -1.7183 -0.8269
 4225SOL     OW12852   4.447   5.714   4.522  0.6489 -0.1368 -0.6021
 4225SOL    HW112853   4.429   5.794   4.466  2.1687 -1.1850 -2.7328
 4225SOL    HW212854   4.379   5.643   4.503 -0.5875  0.5139  1.1473
 4226SOL     OW12855   3.359   7.981   6.805 -0.3581  0.6339 -0.0420
 4226SOL    HW112856   3.345   7.946   6.712 -1.8209 -0.2641  0.4846
 4226SOL    HW212857   3.272   8.008   6.844 -0.0391 -0.6825  1.7090
 4227SOL     OW12858   6.297   8.288   7.954 -0.3806  0.2276  0.4665
 4227SOL    HW112859   6.376   8.241   7.994  1.6297  1.3766 -1.8647
 4227SOL    HW212860   6.311   8.387   7.960 -0.6987  0.4383 -1.6032
 4228SOL     OW12861   0.274   6.013   6.412  0.3699  0.0512  0.7147
 4228SOL    HW112862   0.221   6.020   6.496  0.4886  0.3696  0.7648
 4228SOL    HW212863   0.244   5.933   6.360 -1.8079  1.4731 -0.3996
 4229SOL     OW12864   5.334   1.462   2.693 -0.3397 -0.1478  0.1244
 4229SOL    HW112865   5.260   1.514   2.651  0.4718 -0.7156 -2.1546
 4229SOL    HW212866   5.413   1.522   2.707  0.7441 -0.6712 -2.8856
 4230SOL     OW12867   6.890   2.951   8.391 -0.7482  0.0605  0.3441
 4230SOL    HW112868   6.915   2.934   8.487 -1.1486 -1.4783  0.2051
 4230SOL    HW212869   6.799   2.913   8.373 -1.1476  1.3100 -0.3808
 4231SOL     OW12870   6.152   7.384   5.840 -0.3152 -0.4587 -0.0181
 4231SOL    HW112871   6.141   7.454   5.910 -2.9041  0.2475 -1.0044
 4231SOL    HW212872   6.189   7.301   5.881  1.6354  1.0351  1.4220
 4232SOL     OW12873   1.390   8.327   7.421  0.3948 -0.0264 -0.3956
 4232SOL    HW112874   1.391   8.415   7.469  1.9257  0.0645 -0.5627
 4232SOL    HW212875   1.410   8.341   7.324 -0.2924 -0.4737 -0.6083
 4233SOL     OW12876   0.457   4.725   4.831 -0.2824 -0.0048 -0.1144
 4233SOL    HW112877   0.418   4.812   4.802  0.4877 -0.0714 -1.4486
 4233SOL    HW212878   0.390   4.675   4.886 -1.7230  0.3153 -1.5000
 4234SOL     OW12879   2.911   7.735   3.274 -0.2950  0.0430 -0.3075
 4234SOL    HW112880   3.002   7.776   3.261 -0.6144  0.2590 -2.2965
 4234SOL    HW212881   2.922   7.638   3.298  0.4957 -0.1914 -1.5037
 4235SOL     OW12882   3.292   3.028   7.982 -0.1367  0.0010  0.3911
 4235SOL    HW112883   3.389   3.030   7.958 -0.5212  0.6554 -1.2020
 4235SOL    HW212884   3.250   2.944   7.948 -0.5184  0.5860 -0.6387
 4236SOL     OW12885   3.677   3.648   6.453 -0.1160 -0.0436  0.4786
 4236SOL    HW112886   3.713   3.569   6.504 -1.3270 -0.9837 -0.0695
 4236SOL    HW212887   3.580   3.660   6.476 -0.3453  0.3038 -0.6476
 4237SOL     OW12888   2.665   1.884   6.107  0.1416 -0.4095 -0.6546
 4237SOL    HW112889   2.634   1.893   6.201  0.4216 -0.0970 -0.5891
 4237SOL    HW212890   2.587   1.888   6.045  0.0569  0.5177 -0.4995
 4238SOL     OW12891   1.757   6.116   5.427  0.1446  0.9627  0.8688
 4238SOL    HW112892   1.660   6.107   5.450  0.2721  0.6325  1.3029
 4238SOL    HW212893   1.799   6.185   5.485  0.8708 -1.1335  2.9933
 4239SOL     OW12894   1.533   0.279   0.580  0.4602  0.7429 -0.1342
 4239SOL    HW112895   1.546   0.359   0.522  2.3066  0.9445  0.4951
 4239SOL    HW212896   1.564   0.300   0.673  3.0238 -1.2741 -0.4130
 4240SOL     OW12897   5.103   7.280   2.933  0.7811  0.0169  0.0126
 4240SOL    HW112898   5.066   7.364   2.973  1.7060  1.1944 -1.4521
 4240SOL    HW212899   5.201   7.292   2.915  1.8538 -2.7581  3.1481
 4241SOL     OW12900   6.454   8.675   5.698  0.3556 -0.7410 -0.0007
 4241SOL    HW112901   6.395   8.712   5.770  0.8663 -1.9335  1.0797
 4241SOL    HW212902   6.549   8.697   5.720  0.4547 -0.3319 -0.8105
 4242SOL     OW12903   4.110   0.499   2.462 -1.0172  0.0414  0.8661
 4242SOL    HW112904   4.041   0.435   2.495 -1.4314  0.3722  0.6515
 4242SOL    HW212905   4.083   0.592   2.486 -1.4190  0.3081 -0.5378
 4243SOL     OW12906   0.558   0.999   3.186 -0.3434  0.0986  0.3621
 4243SOL    HW112907   0.637   1.008   3.247 -0.7059  1.3780  0.6758
 4243SOL    HW212908   0.553   0.906   3.151  0.2395 -0.5043  1.8081
 4244SOL     OW12909   6.244   3.103   8.596  0.2602 -0.0617 -1.0026
 4244SOL    HW112910   6.195   3.179   8.553 -1.0078  0.1267  0.6654
 4244SOL    HW212911   6.257   3.029   8.529 -2.2470 -0.0640 -1.5690
 4245SOL     OW12912   8.315   8.786   4.444  0.1873 -0.2916  0.0947
 4245SOL    HW112913   8.414   8.773   4.451  0.2266  0.1274  0.3337
 4245SOL    HW212914   8.296   8.873   4.398 -0.0652  0.3315  1.3494
 4246SOL     OW12915   7.639   6.056   2.988 -0.1333  0.3034  0.1199
 4246SOL    HW112916   7.637   6.066   3.088 -2.2689  3.1636 -0.0663
 4246SOL    HW212917   7.733   6.059   2.956  0.5385  0.4019  1.9632
 4247SOL     OW12918   6.136   3.869   0.655  0.2749 -0.4920  0.0176
 4247SOL    HW112919   6.190   3.852   0.738  0.1717 -0.4745  0.0888
 4247SOL    HW212920   6.197   3.877   0.576  0.4906  0.8173  0.3002
 4248SOL     OW12921   3.787   4.199   8.615  0.1672 -0.1284  0.1815
 4248SOL    HW112922   3.868   4.167   8.664  1.9622  3.5785  0.0368
 4248SOL    HW212923   3.735   4.260   8.675 -1.9873 -1.5908 -0.1075
 4249SOL     OW12924   0.538   7.867   6.657  0.0495  0.0179 -0.0684
 4249SOL    HW112925   0.586   7.799   6.713  0.7420 -0.0178 -0.7008
 4249SOL    HW212926   0.593   7.950   6.651 -0.6828  0.5618  0.4934
 4250SOL     OW12927   1.671   0.419   6.504  0.1859  0.0699 -0.5292
 4250SOL    HW112928   1.613   0.397   6.583  0.1806  0.5943 -0.3873
 4250SOL    HW212929   1.666   0.517   6.485  1.9059  0.3217  0.1828
 4251SOL     OW12930   0.435   8.166   2.192  0.7946 -0.0441 -0.0382
 4251SOL    HW112931   0.531   8.142   2.184  0.2277 -2.5068 -0.2893
 4251SOL    HW212932   0.387   8.141   2.107 -0.2104  0.3864  0.3824
 4252SOL     OW12933   6.241   6.311   1.550 -0.7262 -0.2742  0.6374
 4252SOL    HW112934   6.214   6.400   1.516  2.0316 -0.0319 -1.2276
 4252SOL    HW212935   6.169   6.244   1.529 -1.7920  1.0438 -0.0719
 4253SOL     OW12936   7.968   3.937   5.508 -0.4161 -0.0234 -0.2517
 4253SOL    HW112937   7.980   3.838   5.501 -1.0949 -0.3626  2.3570
 4253SOL    HW212938   8.055   3.983   5.485 -0.7395 -0.9553 -3.9812
 4254SOL     OW12939   4.464   2.384   4.985 -0.4352 -0.1056 -0.2249
 4254SOL    HW112940   4.429   2.298   4.949  2.2849 -0.8006 -1.4378
 4254SOL    HW212941   4.500   2.440   4.910  0.6670  0.6962  0.8510
 4255SOL     OW12942   7.342   5.336   8.193 -0.1018  0.1007  1.0179
 4255SOL    HW112943   7.395   5.261   8.233  0.8210  0.2239  0.0848
 4255SOL    HW212944   7.394   5.377   8.118 -2.0722 -0.6355 -0.8466
 4256SOL     OW12945   3.337   0.489   5.266  0.0586 -0.0666 -0.2210
 4256SOL    HW112946   3.408   0.548   5.227  0.0434 -0.1923 -0.4381
 4256SOL    HW212947   3.272   0.545   5.319  0.3152  0.0487 -0.0259
 4257SOL     OW12948   3.006   0.251   3.301 -0.3857  0.1233 -0.3454
 4257SOL    HW112949   3.019   0.341   3.344 -0.6416 -0.2367  0.5124
 4257SOL    HW212950   2.934   0.201   3.350 -0.7349 -0.2748 -1.2571
 4258SOL     OW12951   5.315   5.404   1.907  0.0878  0.1837  0.1534
 4258SOL    HW112952   5.284   5.338   1.839  2.7319 -0.9398 -0.0977
 4258SOL    HW212953   5.339   5.357   1.992 -0.1264  1.1425  0.7629
 4259SOL     OW12954   1.255   3.288   2.364  0.1031  0.2293  0.4494
 4259SOL    HW112955   1.297   3.245   2.444  1.6369  0.9275  0.0427
 4259SOL    HW212956   1.325   3.311   2.297 -1.3589 -2.8143 -2.3878
 4260SOL     OW12957   4.136   0.640   3.213  0.1311 -0.0366  0.1188
 4260SOL    HW112958   4.212   0.579   3.234  0.9716  0.3199 -1.6798
 4260SOL    HW212959   4.052   0.587   3.204 -0.2045 -0.2917  3.4436
 4261SOL     OW12960   5.037   5.819   5.745 -0.4065 -0.0003  0.0140
 4261SOL    HW112961   5.001   5.772   5.825 -0.1590  0.8937  0.6593
 4261SOL    HW212962   5.135   5.801   5.737 -0.8894 -2.3058 -1.6535
 4262SOL     OW12963   6.147   8.612   1.406 -0.4354 -0.7477  0.0983
 4262SOL    HW112964   6.100   8.661   1.332  0.3672  0.2614  0.2222
 4262SOL    HW212965   6.095   8.621   1.491 -0.6116 -0.6366 -0.0199
 4263SOL     OW12966   0.013   0.531   1.245  0.4491  0.1314 -0.0762
 4263SOL    HW112967  -0.038   0.466   1.189 -2.2021  2.1428 -0.2001
 4263SOL    HW212968  -0.040   0.554   1.327  0.8949  2.6357 -0.4066
 4264SOL     OW12969   4.434   5.124   7.398 -0.1396  0.1127  0.1751
 4264SOL    HW112970   4.447   5.121   7.298 -0.6034  0.6366  0.0992
 4264SOL    HW212971   4.430   5.219   7.428  1.0501 -0.0280  0.8414
 4265SOL     OW12972   0.459   0.836   5.374  0.3972  0.2937 -0.0768
 4265SOL    HW112973   0.537   0.811   5.432  1.2096  1.4298 -0.6440
 4265SOL    HW212974   0.481   0.816   5.279  0.1452  0.9722 -0.2824
 4266SOL     OW12975   2.939   2.881   6.620  0.4798  0.0720 -0.6408
 4266SOL    HW112976   2.884   2.810   6.664 -0.2203  0.2092 -1.2865
 4266SOL    HW212977   2.895   2.970   6.634  1.6964  0.4996  0.7509
 4267SOL     OW12978   8.583   5.590   7.357 -0.0755  0.1360  0.3318
 4267SOL    HW112979   8.666   5.644   7.349  0.8845 -1.3305 -0.0702
 4267SOL    HW212980   8.543   5.576   7.267 -1.0400  1.2211  0.5709
 4268SOL     OW12981   1.673   3.131   2.555  0.4721  0.6098  0.0620
 4268SOL    HW112982   1.667   3.230   2.569 -1.1541  0.5664 -0.1642
 4268SOL    HW212983   1.709   3.112   2.463  1.2588  0.9784  0.2894
 4269SOL     OW12984   5.305   6.220   7.201  0.5827 -0.2182 -0.6711
 4269SOL    HW112985   5.383   6.159   7.185  0.6223 -0.3351 -0.0600
 4269SOL    HW212986   5.283   6.221   7.298  0.4997  0.6511 -0.6897
 4270SOL     OW12987   8.027   3.556   7.253 -0.3893  0.0302 -0.4186
 4270SOL    HW112988   8.024   3.638   7.196 -0.5919 -0.2994 -0.8860
 4270SOL    HW212989   7.951   3.558   7.319 -0.0587  0.4882 -0.0496
 4271SOL     OW12990   6.670   1.690   4.257  0.1151  0.6050  0.5505
 4271SOL    HW112991   6.649   1.749   4.335  2.7200  0.2356  1.6277
 4271SOL    HW212992   6.666   1.743   4.173 -1.4894  1.3129  1.0361
 4272SOL     OW12993   3.627   1.919   4.844 -0.4209  0.5772 -0.6044
 4272SOL    HW112994   3.608   1.837   4.790  1.3961 -1.1486  1.2331
 4272SOL    HW212995   3.575   1.917   4.929  0.9390  0.4019  0.2536
 4273SOL     OW12996   5.855   5.501   6.641 -0.0898 -0.5273  0.1516
 4273SOL    HW112997   5.764   5.466   6.663  0.2453 -1.4547  0.1409
 4273SOL    HW212998   5.860   5.522   6.544 -0.3412 -0.3192  0.1831
 4274SOL     OW12999   0.600   2.567   3.537 -0.1055  0.2994 -0.0308
 4274SOL    HW113000   0.675   2.511   3.504  0.1853 -0.1144  1.2677
 4274SOL    HW213001   0.523   2.509   3.562 -0.5086  0.6416 -0.4596
 4275SOL     OW13002   6.547   7.404   4.580  0.1923  0.2751  0.2246
 4275SOL    HW113003   6.623   7.435   4.523  0.2645  0.5186  0.4509
 4275SOL    HW213004   6.481   7.354   4.523  1.3969 -1.5311  0.3380
 4276SOL     OW13005   6.611   2.582   7.409 -0.5412  0.1435 -0.3755
 4276SOL    HW113006   6.686   2.645   7.429 -0.6515 -0.0622  0.7726
 4276SOL    HW213007   6.648   2.495   7.377 -0.2798  0.0001  0.3062
 4277SOL     OW13008   3.464   3.485   3.968 -0.0847  1.0448 -0.1817
 4277SOL    HW113009   3.477   3.510   3.872  1.1582  0.4915 -0.1822
 4277SOL    HW213010   3.495   3.561   4.025  2.4011  0.1671 -0.2074
 4278SOL     OW13011   6.640   0.253   8.355  0.6833  0.5499 -0.2848
 4278SOL    HW113012   6.632   0.348   8.326 -0.6113  0.4870 -0.1860
 4278SOL    HW213013   6.634   0.247   8.455 -1.2799  0.2243 -0.3772
 4279SOL     OW13014   0.906   1.595   2.211  0.7979  0.0102  0.2715
 4279SOL    HW113015   0.873   1.689   2.202 -1.2707 -0.6396  0.6323
 4279SOL    HW213016   0.883   1.559   2.301 -1.2484 -1.7987 -0.8452
 4280SOL     OW13017   4.250   5.034   4.471 -0.3419  0.5938 -0.0263
 4280SOL    HW113018   4.195   4.950   4.473  0.9159 -0.2688  1.8039
 4280SOL    HW213019   4.236   5.084   4.557 -0.7338  2.0633 -0.9151
 4281SOL     OW13020   1.547   6.048   2.693  0.1088 -0.2883  0.1669
 4281SOL    HW113021   1.559   6.129   2.749 -0.1240  0.5354 -0.9422
 4281SOL    HW213022   1.451   6.021   2.693 -0.1008  0.3924 -0.7100
 4282SOL     OW13023   1.871   3.767   2.744 -0.1403  0.0362 -0.4336
 4282SOL    HW113024   1.875   3.675   2.784 -1.3254  0.2377  0.1784
 4282SOL    HW213025   1.776   3.791   2.724  0.1747  1.0685 -0.7658
 4283SOL     OW13026   3.936   6.356   6.829 -0.1669 -0.4246  0.1926
 4283SOL    HW113027   3.947   6.428   6.761 -1.5391 -0.5698 -0.2071
 4283SOL    HW213028   3.967   6.389   6.918  0.0450  0.3494 -0.1649
 4284SOL     OW13029   8.591   7.016   1.139 -0.2819 -0.2947 -0.4170
 4284SOL    HW113030   8.528   6.942   1.162  1.4388 -1.7109 -0.0533
 4284SOL    HW213031   8.539   7.097   1.110 -2.4601 -0.1640  3.1869
 4285SOL     OW13032   3.023   6.252   7.423  0.6061  0.3487 -0.3661
 4285SOL    HW113033   2.937   6.300   7.404 -0.4165 -1.8516 -1.7229
 4285SOL    HW213034   3.097   6.296   7.373 -0.3579  0.3685 -1.8514
 4286SOL     OW13035   1.858   1.947   7.899  0.1914 -0.2542  0.2384
 4286SOL    HW113036   1.846   1.968   7.802  1.6110  1.6408  0.4146
 4286SOL    HW213037   1.838   1.850   7.915 -1.4001 -0.2982 -1.6695
 4287SOL     OW13038   3.739   0.367   3.326 -0.0555 -0.1110 -0.4358
 4287SOL    HW113039   3.675   0.419   3.384 -1.0520 -1.8657  0.1258
 4287SOL    HW213040   3.709   0.372   3.231 -1.7533 -1.7807 -0.0605
 4288SOL     OW13041   4.502   8.800   0.008 -0.5052  0.2977 -0.1211
 4288SOL    HW113042   4.556   8.759   0.082 -0.9386 -0.3936 -0.1772
 4288SOL    HW213043   4.459   8.883   0.041  0.4624  0.7792 -0.0290
 4289SOL     OW13044   1.817   1.226   4.144  0.4305  0.1467  0.4380
 4289SOL    HW113045   1.808   1.177   4.231  0.7502 -0.2050  0.2747
 4289SOL    HW213046   1.901   1.279   4.144  0.6571 -0.2120  0.1669
 4290SOL     OW13047   3.015   4.742   6.085 -0.9453  0.1677  0.0830
 4290SOL    HW113048   3.060   4.653   6.094  2.4842  1.8642  1.6967
 4290SOL    HW213049   2.992   4.758   5.989 -1.3182 -2.2664 -0.2886
 4291SOL     OW13050   3.607   1.640   4.064 -0.2139  0.2464 -0.2607
 4291SOL    HW113051   3.682   1.576   4.049 -1.7748 -1.4718 -1.0060
 4291SOL    HW213052   3.571   1.671   3.976 -1.2126  0.0382  0.0634
 4292SOL     OW13053   1.564   6.067   0.191 -0.3478 -0.2207  0.8133
 4292SOL    HW113054   1.626   6.124   0.245 -0.7846  0.4059  0.6727
 4292SOL    HW213055   1.511   6.125   0.129 -0.3768 -0.8533  0.2342
 4293SOL     OW13056   6.139   2.648   3.158 -0.3131 -0.0781  0.5963
 4293SOL    HW113057   6.117   2.599   3.073 -1.1174  0.5058  0.4533
 4293SOL    HW213058   6.217   2.709   3.142 -1.1791  0.9014 -0.0819
 4294SOL     OW13059   7.224   5.369   1.035  0.6315  0.0222  0.1489
 4294SOL    HW113060   7.152   5.352   1.103 -1.5463  1.1337 -1.7331
 4294SOL    HW213061   7.240   5.467   1.027  2.0868 -0.1858  0.2129
 4295SOL     OW13062   5.430   1.875   7.627  0.6873 -0.4518 -0.5568
 4295SOL    HW113063   5.509   1.898   7.683 -1.2010  2.2316  1.2631
 4295SOL    HW213064   5.365   1.820   7.680 -0.1441  0.2160 -0.8538
 4296SOL     OW13065   1.824   4.971   6.266  0.2305 -0.6050  0.2124
 4296SOL    HW113066   1.768   4.902   6.221 -0.2772 -0.3099  0.3810
 4296SOL    HW213067   1.809   4.967   6.365 -0.7680  0.5687  0.1251
 4297SOL     OW13068   8.352   2.568   4.928  0.6517  0.3377  0.1125
 4297SOL    HW113069   8.394   2.477   4.924 -1.4854 -0.9013  2.4643
 4297SOL    HW213070   8.410   2.630   4.979  0.6216 -0.7396  1.5152
 4298SOL     OW13071   6.809   3.120   2.853 -0.1933  0.0854 -0.1869
 4298SOL    HW113072   6.895   3.128   2.902 -0.6405 -0.1569  0.6443
 4298SOL    HW213073   6.817   3.167   2.765  0.4786  0.8812  0.2869
 4299SOL     OW13074   6.049   3.310   3.052  0.2429 -0.1540  0.7965
 4299SOL    HW113075   6.068   3.300   2.954  0.7534  1.8263  0.6425
 4299SOL    HW213076   6.124   3.360   3.095  0.4684 -1.8022  2.4168
 4300SOL     OW13077   3.969   5.745   6.063  0.0707  0.3151  0.2562
 4300SOL    HW113078   4.044   5.688   6.095 -0.1113 -0.5475 -0.8046
 4300SOL    HW213079   4.006   5.833   6.031  0.6991 -0.2871 -0.7085
 4301SOL     OW13080   2.203   7.331   1.709  0.3630  0.0127 -0.0194
 4301SOL    HW113081   2.298   7.324   1.739  0.3327 -1.6226 -0.2205
 4301SOL    HW213082   2.190   7.277   1.626 -1.0127 -0.8048  0.6960
 4302SOL     OW13083   4.003   1.162   6.427 -0.1916 -0.1836  0.7701
 4302SOL    HW113084   3.990   1.137   6.331 -0.8488 -1.5318  1.1869
 4302SOL    HW213085   4.057   1.091   6.472 -0.3439  0.1803  1.5304
 4303SOL     OW13086   0.749   1.331   6.527 -0.5935  0.3388  0.0196
 4303SOL    HW113087   0.711   1.339   6.435  0.1219  1.2124 -0.2138
 4303SOL    HW213088   0.808   1.250   6.532  0.7885  1.2518 -0.8340
 4304SOL     OW13089   5.892   7.335   7.614 -0.2796 -0.2309  0.2595
 4304SOL    HW113090   5.806   7.387   7.623 -0.3478 -0.5259  1.5421
 4304SOL    HW213091   5.936   7.330   7.704  0.3433 -1.3430 -0.1049
 4305SOL     OW13092   7.627   5.632   8.530  0.2252  0.6873  0.3447
 4305SOL    HW113093   7.695   5.705   8.537 -0.9496  2.0933 -1.8230
 4305SOL    HW213094   7.535   5.672   8.535 -0.4679 -0.9399  1.2631
 4306SOL     OW13095   0.283   4.281   1.902  0.6363  0.2648 -0.5456
 4306SOL    HW113096   0.309   4.357   1.962  0.2142  0.4265 -0.5654
 4306SOL    HW213097   0.233   4.213   1.955 -0.1220  0.6138 -0.7993
 4307SOL     OW13098   5.767   8.441   5.861  0.0309 -0.1674 -0.8302
 4307SOL    HW113099   5.670   8.426   5.880 -0.0345  0.7764 -0.3308
 4307SOL    HW213100   5.812   8.475   5.944  0.3650  1.3198 -1.5936
 4308SOL     OW13101   7.082   5.064   2.248 -0.1559  0.4867  0.0199
 4308SOL    HW113102   7.122   5.153   2.272 -1.1441  0.5134  1.6855
 4308SOL    HW213103   6.985   5.076   2.226 -0.2075 -0.1409 -0.1190
 4309SOL     OW13104   0.781   3.846   3.093  0.0507  0.3495  0.2291
 4309SOL    HW113105   0.714   3.797   3.149 -0.9128  1.0426 -0.2915
 4309SOL    HW213106   0.736   3.882   3.011  1.1478  0.5136 -0.3193
 4310SOL     OW13107   2.164   7.568   4.962 -0.3430  0.6384  0.2090
 4310SOL    HW113108   2.115   7.484   4.986 -1.2517  0.9557 -0.4944
 4310SOL    HW213109   2.262   7.547   4.953 -0.3463 -0.0171  1.5058
 4311SOL     OW13110   5.676   6.165   5.771  0.3502 -0.3774 -0.3779
 4311SOL    HW113111   5.737   6.225   5.721  0.0545 -0.2518 -0.5891
 4311SOL    HW213112   5.630   6.103   5.707 -0.8501  0.5131 -0.3996
 4312SOL     OW13113   7.563   3.322   8.499  0.3030  0.0671  0.2600
 4312SOL    HW113114   7.522   3.393   8.557 -0.1102 -0.5393  0.7154
 4312SOL    HW213115   7.636   3.276   8.549  0.2039 -0.1998  0.1604
 4313SOL     OW13116   2.749   4.990   5.945 -0.5547  0.3287 -0.1938
 4313SOL    HW113117   2.836   5.036   5.963  0.4372 -1.2154 -0.8843
 4313SOL    HW213118   2.729   4.992   5.847 -0.9729  0.0902 -0.1177
 4314SOL     OW13119   7.448   8.228   2.578 -0.0112 -0.0662  0.0984
 4314SOL    HW113120   7.405   8.308   2.537  1.5387  0.1058 -1.3142
 4314SOL    HW213121   7.463   8.158   2.508  0.7515 -0.6554  0.8158
 4315SOL     OW13122   6.620   6.766   4.497  0.1887 -0.3658  0.1082
 4315SOL    HW113123   6.576   6.681   4.528 -0.5551  0.4700  1.4246
 4315SOL    HW213124   6.571   6.800   4.416 -1.1676  0.1591  1.1193
 4316SOL     OW13125   0.776   2.106   7.434  0.4633 -0.0739  0.0434
 4316SOL    HW113126   0.859   2.158   7.451 -0.6063  1.9595 -0.6846
 4316SOL    HW213127   0.796   2.032   7.369  1.7475  0.2412  0.0572
 4317SOL     OW13128   0.984   8.775   3.260  0.4034  0.1332 -0.2748
 4317SOL    HW113129   0.963   8.816   3.348  1.6928  0.5601 -0.1607
 4317SOL    HW213130   0.925   8.816   3.190  0.1878  0.6361  0.1919
 4318SOL     OW13131   6.384   7.212   3.408 -0.2718 -0.0727  0.0313
 4318SOL    HW113132   6.475   7.173   3.418 -0.0214  0.2704 -0.8016
 4318SOL    HW213133   6.330   7.193   3.489  0.5706 -0.2095  0.5678
 4319SOL     OW13134   8.274   2.138   6.980 -0.0522 -0.2733  0.3734
 4319SOL    HW113135   8.177   2.157   7.000 -0.9691 -2.1537 -1.8060
 4319SOL    HW213136   8.321   2.222   6.956 -1.3154  0.5722  0.7684
 4320SOL     OW13137   8.103   5.682   1.295  0.0090 -0.5776 -0.3498
 4320SOL    HW113138   8.130   5.589   1.322 -2.1737 -0.9442  0.7791
 4320SOL    HW213139   8.003   5.687   1.289  0.1722  0.9393 -3.3855
 4321SOL     OW13140   5.791   8.538   1.393  0.2729 -0.5486  0.5703
 4321SOL    HW113141   5.839   8.617   1.355 -0.1816 -0.6045 -0.1245
 4321SOL    HW213142   5.849   8.494   1.462  1.1070 -0.4660 -0.0681
 4322SOL     OW13143   6.164   0.071   1.988  0.1537 -0.2884 -0.0069
 4322SOL    HW113144   6.219   0.154   1.987 -2.3585  1.5641  1.5240
 4322SOL    HW213145   6.145   0.042   1.894  3.8814 -1.2698 -0.5953
 4323SOL     OW13146   8.546   7.741   3.536 -0.0448  0.0213 -0.1802
 4323SOL    HW113147   8.480   7.665   3.536  1.1925 -1.1470 -1.9542
 4323SOL    HW213148   8.633   7.708   3.572  0.6246  0.4505 -1.3481
 4324SOL     OW13149   5.142   5.350   0.511 -0.0453 -0.1327 -0.1538
 4324SOL    HW113150   5.127   5.254   0.533 -0.1784 -0.2597 -0.7741
 4324SOL    HW213151   5.139   5.405   0.595  0.6386 -0.7430  0.2686
 4325SOL     OW13152   4.380   5.527   0.258  0.4362  0.0632  0.0414
 4325SOL    HW113153   4.429   5.483   0.184  0.0986  0.7126 -0.5848
 4325SOL    HW213154   4.325   5.603   0.222 -0.7434 -0.4053  0.7595
 4326SOL     OW13155   3.527   2.275   7.659 -0.8330  0.3550 -0.1042
 4326SOL    HW113156   3.550   2.181   7.634  0.1508  0.8097 -0.9585
 4326SOL    HW213157   3.469   2.315   7.588 -2.1059  0.0906  0.7460
 4327SOL     OW13158   3.447   2.078   6.832 -0.4339 -0.8235  0.1385
 4327SOL    HW113159   3.431   2.089   6.930  0.6612 -0.3876  0.2696
 4327SOL    HW213160   3.489   2.160   6.795 -2.8902 -0.0542 -1.1729
 4328SOL     OW13161   2.485   1.001   8.575  0.0676 -0.3671  0.3550
 4328SOL    HW113162   2.565   1.026   8.628 -0.4563  0.1929  0.8855
 4328SOL    HW213163   2.415   0.963   8.635 -0.1650 -0.6253 -0.0697
 4329SOL     OW13164   7.582   5.404   6.639  0.7062  0.0547  0.4760
 4329SOL    HW113165   7.609   5.332   6.703  0.7682 -0.1472  0.2239
 4329SOL    HW213166   7.635   5.487   6.658 -0.6756  0.6417  1.9939
 4330SOL     OW13167   8.084   0.661   4.865  0.1989 -0.2436  0.0730
 4330SOL    HW113168   8.068   0.703   4.955  0.4306  0.8845 -0.3968
 4330SOL    HW213169   7.998   0.626   4.829 -0.7364  2.7442 -0.9337
 4331SOL     OW13170   6.477   4.033   2.218  0.2065 -0.3260  0.9958
 4331SOL    HW113171   6.524   4.030   2.306  0.3192  1.0594  1.0063
 4331SOL    HW213172   6.382   4.062   2.233  0.7596  1.9242  0.5121
 4332SOL     OW13173   3.375   1.013   7.908  0.2184 -0.0281  0.3658
 4332SOL    HW113174   3.327   0.931   7.940  0.4880 -0.4520 -0.2893
 4332SOL    HW213175   3.313   1.066   7.850 -0.5497  1.1719  2.1860
 4333SOL     OW13176   5.421   0.704   7.835  0.1012  0.3356  0.5407
 4333SOL    HW113177   5.378   0.789   7.865 -0.3774 -0.0525  0.9829
 4333SOL    HW213178   5.429   0.642   7.913  0.3546 -0.0645  0.2005
 4334SOL     OW13179   7.187   1.490   7.161  0.1098 -0.3359 -0.4706
 4334SOL    HW113180   7.123   1.444   7.099 -0.9637  1.9488 -1.1422
 4334SOL    HW213181   7.257   1.536   7.108  0.3771 -0.0634  0.1149
 4335SOL     OW13182   2.065   6.838   0.286  0.1572  0.3189 -0.7185
 4335SOL    HW113183   1.977   6.875   0.314 -0.1303  0.3895 -1.6796
 4335SOL    HW213184   2.056   6.796   0.195  1.3100  1.1055 -1.2128
 4336SOL     OW13185   1.697   5.384   4.773  0.1026 -0.1996 -0.1657
 4336SOL    HW113186   1.719   5.344   4.861 -0.5667  1.9630  1.0694
 4336SOL    HW213187   1.597   5.389   4.762  0.1657  0.7635 -0.4116
 4337SOL     OW13188   1.351   4.861   7.272  0.2055  0.1589 -0.2610
 4337SOL    HW113189   1.295   4.819   7.201  1.7110  0.0250 -1.4417
 4337SOL    HW213190   1.344   4.961   7.266 -0.3756  0.1370  0.0107
 4338SOL     OW13191   4.617   4.567   4.536 -0.4771 -0.1743 -0.3606
 4338SOL    HW113192   4.670   4.566   4.621  0.4581 -0.9829 -0.9173
 4338SOL    HW213193   4.605   4.473   4.504 -3.9522 -0.2268  0.7086
 4339SOL     OW13194   4.877   6.166   2.017  0.9377 -0.2164 -0.9849
 4339SOL    HW113195   4.919   6.118   2.095  1.2349  0.7589 -0.5324
 4339SOL    HW213196   4.949   6.193   1.953  1.0919  1.7772 -0.0348
 4340SOL     OW13197   6.589   5.197   0.043  0.3464  0.8848 -0.2694
 4340SOL    HW113198   6.573   5.112  -0.008  2.0460  0.5921 -0.3730
 4340SOL    HW213199   6.633   5.264  -0.017  1.4720  0.8784  0.5167
 4341SOL     OW13200   5.021   2.440   3.515 -0.6626  0.3789 -0.5062
 4341SOL    HW113201   5.073   2.523   3.494 -1.7371  1.5379  1.1669
 4341SOL    HW213202   5.008   2.387   3.431  2.4209  0.4319 -1.1734
 4342SOL     OW13203   2.610   2.282   4.171 -0.1468  0.7268  0.3817
 4342SOL    HW113204   2.542   2.353   4.191 -1.5299 -0.6600  0.9016
 4342SOL    HW213205   2.636   2.236   4.256  0.2655  0.2339 -0.0044
 4343SOL     OW13206   7.401   2.589   2.210 -0.0076 -0.3905 -0.1016
 4343SOL    HW113207   7.391   2.562   2.114 -0.4217 -0.2865 -0.0899
 4343SOL    HW213208   7.441   2.680   2.214  0.3255 -0.5301 -0.1651
 4344SOL     OW13209   7.552   1.296   6.944  0.1600  0.0388  0.3423
 4344SOL    HW113210   7.578   1.217   6.888 -1.3865  0.2288 -0.7257
 4344SOL    HW213211   7.571   1.380   6.894 -4.4193  0.1882 -1.6593
 4345SOL     OW13212   1.635   3.840   2.677  0.0572  0.4855 -0.0777
 4345SOL    HW113213   1.604   3.846   2.582  1.1985  0.5858 -0.4515
 4345SOL    HW213214   1.557   3.819   2.736 -0.8677  1.4866 -0.8977
 4346SOL     OW13215   8.251   6.144   2.175 -0.5257  0.0599  0.1044
 4346SOL    HW113216   8.250   6.092   2.089 -0.2542 -2.5398  1.5804
 4346SOL    HW213217   8.174   6.208   2.176 -3.6173 -3.3504 -0.1062
 4347SOL     OW13218   6.330   5.825   8.112  0.2667  0.0535  0.3188
 4347SOL    HW113219   6.406   5.860   8.056  0.3385  1.4805  1.2568
 4347SOL    HW213220   6.246   5.873   8.089 -0.5373 -1.9232 -1.1219
 4348SOL     OW13221   1.177   3.627   7.888  0.2086 -0.1226  1.0079
 4348SOL    HW113222   1.080   3.625   7.864  0.5853  0.9385 -0.8281
 4348SOL    HW213223   1.188   3.606   7.985 -1.7327 -1.4620  0.9836
 4349SOL     OW13224   2.924   6.700   8.632  0.3789 -0.0865 -0.1322
 4349SOL    HW113225   2.968   6.703   8.722 -1.3588  2.4518  0.7749
 4349SOL    HW213226   2.856   6.627   8.631 -3.0576  2.6377  2.6432
 4350SOL     OW13227   7.820   0.323   3.941 -0.3801 -0.1975  0.4958
 4350SOL    HW113228   7.837   0.383   3.863 -1.2616 -1.1009 -0.4372
 4350SOL    HW213229   7.906   0.286   3.975 -0.0159 -0.2459 -0.4463
 4351SOL     OW13230   8.080   5.208   4.132  0.1722  0.1293  0.2512
 4351SOL    HW113231   8.073   5.287   4.193  1.6009  0.2859  0.2624
 4351SOL    HW213232   8.021   5.134   4.165  1.0378  0.1382  1.9467
 4352SOL     OW13233   4.531   5.980   2.912  0.4745 -0.1460  0.0655
 4352SOL    HW113234   4.447   5.946   2.955  1.2828 -1.0555  0.9647
 4352SOL    HW213235   4.537   6.079   2.924 -0.6866 -0.0031 -0.4110
 4353SOL     OW13236   5.094   8.432   6.749  0.1417 -0.0318 -0.5487
 4353SOL    HW113237   5.111   8.528   6.772  0.0543  0.6342 -2.9489
 4353SOL    HW213238   5.046   8.387   6.825  0.1691  1.8158  0.6179
 4354SOL     OW13239   1.417   7.661   2.246  0.5243  0.0441  0.2566
 4354SOL    HW113240   1.478   7.707   2.311 -2.5341  2.6183  1.5887
 4354SOL    HW213241   1.467   7.642   2.161  3.3713  1.0657  1.5745
 4355SOL     OW13242   4.384   1.891   3.959  0.1248  0.5802 -0.1146
 4355SOL    HW113243   4.373   1.913   4.056 -1.8251 -0.2703 -0.0821
 4355SOL    HW213244   4.372   1.793   3.946 -0.4258  0.7887 -1.3037
 4356SOL     OW13245   0.528   1.915   8.303  0.2263  0.0987 -0.1085
 4356SOL    HW113246   0.508   1.904   8.206 -0.1805  1.9801 -0.2702
 4356SOL    HW213247   0.585   1.996   8.317  2.4306 -1.5128  1.0115
 4357SOL     OW13248   7.267   0.764   7.321  0.8132  0.0611  0.2398
 4357SOL    HW113249   7.345   0.784   7.381  1.7708 -0.3753 -0.8313
 4357SOL    HW213250   7.236   0.671   7.336  1.2797 -0.1664 -0.1730
 4358SOL     OW13251   3.687   3.255   6.420  0.3440 -0.4060  0.4143
 4358SOL    HW113252   3.745   3.176   6.440 -0.0939 -0.6260  0.8306
 4358SOL    HW213253   3.657   3.296   6.506  0.2043 -0.0567  0.1983
 4359SOL     OW13254   7.169   5.854   7.018 -0.0460 -0.3505  0.2552
 4359SOL    HW113255   7.215   5.905   6.946  0.4496  0.6050  1.2222
 4359SOL    HW213256   7.213   5.765   7.031  0.4823 -0.1129  0.0730
 4360SOL     OW13257   4.820   6.615   6.051 -0.2870  0.1252 -0.5027
 4360SOL    HW113258   4.821   6.529   6.102  1.4094 -0.6808 -1.7854
 4360SOL    HW213259   4.774   6.600   5.964 -1.3894  0.9574 -0.0735
 4361SOL     OW13260   6.926   2.821   6.773 -0.2799  0.0302  0.2764
 4361SOL    HW113261   6.993   2.759   6.814  0.4364  0.4862 -0.1924
 4361SOL    HW213262   6.961   2.854   6.685 -0.2976  1.7211  0.8766
 4362SOL     OW13263   8.355   6.304   3.139 -0.0754  0.0525 -0.5871
 4362SOL    HW113264   8.394   6.341   3.224 -0.2395  2.0028 -1.3002
 4362SOL    HW213265   8.356   6.204   3.142 -0.0950  0.0714  1.7106
 4363SOL     OW13266   5.203   1.165   3.113  0.3712 -0.6330  0.3759
 4363SOL    HW113267   5.159   1.235   3.057  0.8856 -0.8297 -0.2903
 4363SOL    HW213268   5.250   1.209   3.190  0.4316 -0.2783  0.1393
 4364SOL     OW13269   5.839   4.260   7.815 -0.1869 -0.6250 -0.3259
 4364SOL    HW113270   5.755   4.272   7.763  0.6329  1.0935 -1.3804
 4364SOL    HW213271   5.834   4.315   7.899 -1.4505 -3.2808  1.4692
 4365SOL     OW13272   3.365   0.886   6.622  0.0074  0.2581 -0.9296
 4365SOL    HW113273   3.430   0.942   6.570  0.8678  0.7692  0.6357
 4365SOL    HW213274   3.395   0.791   6.619  1.3733  0.6082  0.4982
 4366SOL     OW13275   6.385   5.100   3.851 -0.1251  0.3518  0.0297
 4366SOL    HW113276   6.327   5.113   3.931 -0.4266  1.1334 -0.2984
 4366SOL    HW213277   6.477   5.074   3.880 -0.7213 -1.2947  0.5425
 4367SOL     OW13278   6.772   6.040   3.638 -0.0015  0.1326  0.0686
 4367SOL    HW113279   6.787   5.977   3.714  1.2461 -0.0225 -0.2841
 4367SOL    HW213280   6.790   6.133   3.668 -1.9783  0.3787  0.6274
 4368SOL     OW13281   0.590   5.248   1.841 -0.5385  0.0378  0.2132
 4368SOL    HW113282   0.592   5.302   1.925 -0.4926  0.8000 -0.2769
 4368SOL    HW213283   0.672   5.192   1.836 -0.1766  0.5532  0.3121
 4369SOL     OW13284   2.733   6.524   7.966  0.3883  0.1008  0.2485
 4369SOL    HW113285   2.726   6.452   8.035  1.1160 -0.3295 -0.1188
 4369SOL    HW213286   2.712   6.613   8.009 -0.4334 -0.3050  0.7192
 4370SOL     OW13287   5.914   4.516   7.939  0.0546 -0.0407 -0.3023
 4370SOL    HW113288   5.958   4.565   7.864  1.6749  0.7948  1.1138
 4370SOL    HW213289   5.984   4.488   8.005 -1.2032 -1.6819  0.3898
 4371SOL     OW13290   5.465   7.348   7.448 -0.2822 -0.1918  0.7329
 4371SOL    HW113291   5.502   7.440   7.443  0.1648 -0.4137 -0.3414
 4371SOL    HW213292   5.367   7.352   7.468  0.0086  0.4450  2.1303
 4372SOL     OW13293   4.060   7.806   7.124 -0.1199  0.3399  0.3349
 4372SOL    HW113294   4.083   7.723   7.072  1.3978  0.6807  0.4206
 4372SOL    HW213295   4.007   7.780   7.205 -0.1303 -0.4950  0.0765
 4373SOL     OW13296   4.621   4.137   7.968  0.3602 -0.2856 -0.3737
 4373SOL    HW113297   4.657   4.188   8.046  1.5787 -1.2331 -0.2833
 4373SOL    HW213298   4.553   4.192   7.920  1.1471  1.1388  0.1045
 4374SOL     OW13299   3.077   3.494   1.475 -0.1868  0.2591 -0.5238
 4374SOL    HW113300   3.065   3.465   1.380 -1.7918 -0.7731 -0.0324
 4374SOL    HW213301   3.172   3.479   1.502 -0.0550 -0.8686 -1.5098
 4375SOL     OW13302   7.905   3.536   3.878  0.2060  0.4092  0.4532
 4375SOL    HW113303   7.958   3.509   3.959  0.7242  2.0314  0.6966
 4375SOL    HW213304   7.938   3.485   3.798  0.8803  0.0565  0.9443
 4376SOL     OW13305   4.581   3.780   8.692  0.1944  0.5953 -0.3688
 4376SOL    HW113306   4.521   3.753   8.616 -1.4818  0.9897  0.7676
 4376SOL    HW213307   4.648   3.846   8.659 -0.2934  0.5084 -1.5819
 4377SOL     OW13308   5.055   3.590   1.470 -0.0242  0.4708  0.4230
 4377SOL    HW113309   5.077   3.591   1.568  0.4984 -1.7380  0.3816
 4377SOL    HW213310   5.096   3.509   1.428 -3.4135 -0.7193 -0.8745
 4378SOL     OW13311   4.668   0.927   8.671  0.0540  0.2164 -0.3223
 4378SOL    HW113312   4.717   0.925   8.584 -1.8626 -0.4585 -1.4331
 4378SOL    HW213313   4.657   1.022   8.700  1.7816  0.3945 -0.1379
 4379SOL     OW13314   2.514   5.565   0.315  0.1082 -0.3359  0.4267
 4379SOL    HW113315   2.581   5.512   0.262 -0.4739  0.8286 -1.5712
 4379SOL    HW213316   2.501   5.522   0.404  1.3376 -2.2406 -0.2516
 4380SOL     OW13317   4.166   5.960   1.271 -0.3059  0.1450  0.4493
 4380SOL    HW113318   4.107   5.891   1.315  1.3912 -1.5275  0.2129
 4380SOL    HW213319   4.252   5.966   1.321 -0.2658  1.8514  0.2162
 4381SOL     OW13320   5.369   2.128   7.579 -0.2148  0.1956  0.0358
 4381SOL    HW113321   5.348   2.173   7.665 -1.0842 -1.0020  0.4829
 4381SOL    HW213322   5.376   2.029   7.594  1.0160  0.0902 -1.0178
 4382SOL     OW13323   3.786   7.998   3.202 -0.3897  0.8811 -0.2276
 4382SOL    HW113324   3.874   7.953   3.216 -1.8991 -2.1468  0.3281
 4382SOL    HW213325   3.720   7.962   3.268 -2.4703  1.8170 -1.7204
 4383SOL     OW13326   3.619   8.378   5.104 -0.1790 -0.1661 -0.7032
 4383SOL    HW113327   3.716   8.384   5.126 -0.2514 -1.4780  0.1037
 4383SOL    HW213328   3.600   8.288   5.064 -0.9914  0.2508 -1.2951
 4384SOL     OW13329   8.357   7.220   5.548 -0.4932 -0.4369  0.4342
 4384SOL    HW113330   8.278   7.276   5.573 -0.6396 -0.5780  0.2929
 4384SOL    HW213331   8.389   7.246   5.457  0.9210  1.0682  1.3002
 4385SOL     OW13332   1.899   5.599   3.245 -0.1079  0.1747 -0.1963
 4385SOL    HW113333   1.894   5.547   3.330  0.8153 -0.8637 -0.7509
 4385SOL    HW213334   1.960   5.678   3.259 -0.4152  0.3369  0.2582
 4386SOL     OW13335   7.705   5.166   8.739  0.0080 -0.2469  0.2298
 4386SOL    HW113336   7.621   5.210   8.770 -0.9798 -0.4957 -1.9379
 4386SOL    HW213337   7.721   5.083   8.793  0.1692  0.9922  2.2002
 4387SOL     OW13338   1.401   1.941   8.013  0.1820  0.0270 -0.0284
 4387SOL    HW113339   1.356   1.968   7.928  1.0849 -1.0202 -0.8705
 4387SOL    HW213340   1.478   2.002   8.031  0.7412 -0.4864 -0.6343
 4388SOL     OW13341   1.735   2.294   8.231 -0.2096 -0.4554  0.0137
 4388SOL    HW113342   1.726   2.197   8.207 -1.2930  0.2491 -2.9321
 4388SOL    HW213343   1.763   2.346   8.150  1.5770  1.5947  1.8029
 4389SOL     OW13344   3.035   4.357   0.365  0.2958 -0.1576  0.0807
 4389SOL    HW113345   3.079   4.382   0.279  2.9009  0.5329  1.5182
 4389SOL    HW213346   2.959   4.419   0.383  2.7520  2.9722  0.5471
 4390SOL     OW13347   5.686   6.265   5.007  0.0682 -0.4063  0.6352
 4390SOL    HW113348   5.698   6.187   5.068  2.1511 -0.5496  0.1068
 4390SOL    HW213349   5.772   6.314   4.998 -0.9312  1.3708  0.1197
 4391SOL     OW13350   3.425   8.482   1.697 -0.1683 -0.2124 -0.1796
 4391SOL    HW113351   3.417   8.545   1.620 -0.5207 -0.9175 -0.7285
 4391SOL    HW213352   3.401   8.389   1.668  1.7637 -0.8988  0.2176
 4392SOL     OW13353   3.150   5.475   3.610  0.2455  0.1213 -0.0269
 4392SOL    HW113354   3.136   5.542   3.537 -5.7434 -1.8149 -1.2144
 4392SOL    HW213355   3.147   5.522   3.698  0.3558  1.7947 -0.8567
 4393SOL     OW13356   3.380   0.618   6.674 -0.3958 -0.4668  0.6112
 4393SOL    HW113357   3.464   0.563   6.677  1.0958  1.6737  0.3445
 4393SOL    HW213358   3.366   0.662   6.763 -1.4710 -1.0891  0.7672
 4394SOL     OW13359   7.889   7.727   8.027  0.1129 -0.1625 -0.4534
 4394SOL    HW113360   7.812   7.788   8.046  1.8621  1.1655  3.5247
 4394SOL    HW213361   7.957   7.775   7.972 -0.3744 -0.0993 -1.0053
 4395SOL     OW13362   8.018   0.705   5.121 -0.1331  0.6604  0.3219
 4395SOL    HW113363   8.114   0.677   5.113  0.4485  2.7242 -0.6949
 4395SOL    HW213364   7.984   0.684   5.212  1.0507 -0.7844  0.4564
 4396SOL     OW13365   2.217   6.884   6.523  0.4703  0.3231  0.7211
 4396SOL    HW113366   2.126   6.924   6.533  0.2591  0.0341  0.0241
 4396SOL    HW213367   2.286   6.956   6.526  0.0833  0.7731 -0.6875
 4397SOL     OW13368   6.279   3.409   3.752 -0.2261  0.2697  0.3229
 4397SOL    HW113369   6.369   3.414   3.708 -0.3333 -0.5023  0.0001
 4397SOL    HW213370   6.223   3.341   3.705 -1.3019  1.3928 -0.0451
 4398SOL     OW13371   0.610   3.705   2.393 -0.1653 -0.4675 -0.0108
 4398SOL    HW113372   0.647   3.622   2.434 -3.2445 -0.5329  3.0501
 4398SOL    HW213373   0.520   3.685   2.354 -1.0193  1.3753  0.8947
 4399SOL     OW13374   0.395   1.210   3.283 -0.0447  0.2085 -0.6557
 4399SOL    HW113375   0.436   1.120   3.268  1.4107  0.5631  0.9519
 4399SOL    HW213376   0.307   1.199   3.331 -0.3327 -0.3872 -1.3034
 4400SOL     OW13377   1.391   8.499   1.245  0.2627 -0.2663 -0.4504
 4400SOL    HW113378   1.399   8.494   1.344 -1.4216 -0.4927 -0.2952
 4400SOL    HW213379   1.400   8.594   1.215 -1.2402  0.0815  0.1484
 4401SOL     OW13380   6.679   7.753   5.353  0.5230 -0.1919  0.3709
 4401SOL    HW113381   6.611   7.705   5.407  1.6275  0.1233  2.1113
 4401SOL    HW213382   6.635   7.825   5.300 -0.6339 -0.7213  0.5988
 4402SOL     OW13383   6.819   4.934   0.058 -0.4853 -0.2419 -0.5180
 4402SOL    HW113384   6.816   5.020   0.109 -2.7810 -0.1274 -0.7432
 4402SOL    HW213385   6.766   4.865   0.107 -0.9007 -0.7503 -1.6499
 4403SOL     OW13386   4.158   2.130   8.692 -0.2568  0.1276 -0.0930
 4403SOL    HW113387   4.173   2.052   8.754  0.4537 -0.9311 -1.5396
 4403SOL    HW213388   4.068   2.120   8.649 -0.5826  0.6492  0.4591
 4404SOL     OW13389   2.245   7.815   5.823 -0.0785 -0.1316 -1.0355
 4404SOL    HW113390   2.159   7.767   5.834  1.1223 -2.1526 -0.0137
 4404SOL    HW213391   2.316   7.751   5.794  1.7537  0.8276  1.0566
 4405SOL     OW13392   0.102   1.585   0.382 -0.0839 -0.2318 -0.3776
 4405SOL    HW113393   0.130   1.549   0.293  2.0729  1.2922 -0.4039
 4405SOL    HW213394   0.007   1.616   0.378 -0.4642 -1.4894 -1.7017
 4406SOL     OW13395   0.809   7.699   1.515  0.0599  0.6107  0.1006
 4406SOL    HW113396   0.795   7.672   1.420  1.3038 -1.4562  0.4374
 4406SOL    HW213397   0.904   7.725   1.529 -0.0134  0.5027  0.8517
 4407SOL     OW13398   0.695   7.655   6.772  0.0771  0.1583 -0.3597
 4407SOL    HW113399   0.685   7.588   6.699  0.6022  0.7743 -1.0054
 4407SOL    HW213400   0.675   7.611   6.860 -3.3535  0.0570 -1.0410
 4408SOL     OW13401   1.623   2.809   4.529  0.3971  0.4330  0.1687
 4408SOL    HW113402   1.637   2.712   4.552  0.3583  0.4476  0.2512
 4408SOL    HW213403   1.583   2.815   4.437  1.1999  0.3970 -0.1945
 4409SOL     OW13404   5.397   7.933   7.689 -0.1469 -0.0503  0.4048
 4409SOL    HW113405   5.377   7.971   7.598  0.1213 -0.4240  0.1876
 4409SOL    HW213406   5.365   7.997   7.759  0.4748  0.6731  0.0485
 4410SOL     OW13407   8.787   4.834   5.656 -0.3419 -0.1324  0.5684
 4410SOL    HW113408   8.852   4.890   5.605 -0.4306 -1.3079 -0.8837
 4410SOL    HW213409   8.700   4.883   5.665 -0.3446  0.0826 -0.4870
 4411SOL     OW13410   6.328   6.684   7.499  0.0726 -0.4409 -0.0526
 4411SOL    HW113411   6.309   6.679   7.401  1.4091 -0.6982 -0.3233
 4411SOL    HW213412   6.393   6.612   7.523  0.1473 -0.0575  0.9302
 4412SOL     OW13413   5.072   0.647   3.398 -0.2918 -0.1759 -0.1097
 4412SOL    HW113414   5.151   0.621   3.453  0.1803  0.7830 -0.3074
 4412SOL    HW213415   4.990   0.600   3.432  0.3655 -1.2352  0.0501
 4413SOL     OW13416   0.609   0.298   4.818  0.1949 -0.0561  0.0059
 4413SOL    HW113417   0.616   0.261   4.726  0.1781 -2.0234  0.7456
 4413SOL    HW213418   0.668   0.379   4.826  0.2411  0.1146 -1.6839
 4414SOL     OW13419   4.403   0.500   2.974 -0.0366 -0.4335  0.1022
 4414SOL    HW113420   4.386   0.430   2.904 -3.2222  0.7660 -0.4904
 4414SOL    HW213421   4.363   0.472   3.061 -1.7350  0.7650 -0.2511
 4415SOL     OW13422   4.791   5.351   3.661  0.4443  0.3353 -0.1694
 4415SOL    HW113423   4.853   5.273   3.668  0.8612  0.6846  0.0678
 4415SOL    HW213424   4.844   5.435   3.649  0.1202  0.8238  1.4822
 4416SOL     OW13425   6.746   4.375   3.055 -0.0936  0.2662  0.2264
 4416SOL    HW113426   6.761   4.277   3.062 -0.2119  0.1423 -1.0420
 4416SOL    HW213427   6.829   4.419   3.021 -1.0280  0.1379 -2.5098
 4417SOL     OW13428   6.046   8.464   0.042 -0.6918  0.2622 -0.2611
 4417SOL    HW113429   6.060   8.492   0.138 -2.8038 -0.4322  0.2991
 4417SOL    HW213430   6.021   8.545  -0.012  1.1267  0.7704 -0.3995
 4418SOL     OW13431   6.607   2.574   0.172 -0.0964 -0.5676  0.1841
 4418SOL    HW113432   6.599   2.480   0.139  0.8286 -0.9196  0.9075
 4418SOL    HW213433   6.693   2.613   0.141 -1.4680  0.9082 -2.1111
 4419SOL     OW13434   3.301   2.415   6.468  0.2773 -0.2782  0.6294
 4419SOL    HW113435   3.327   2.326   6.505 -0.1898 -0.4602  0.5364
 4419SOL    HW213436   3.371   2.447   6.404  0.3512 -0.6720  0.5127
 4420SOL     OW13437   7.875   8.777   4.322  0.0461  0.1336 -0.1736
 4420SOL    HW113438   7.890   8.791   4.225 -0.4328 -0.1464 -0.2924
 4420SOL    HW213439   7.778   8.789   4.344 -0.4067 -2.6306 -0.2657
 4421SOL     OW13440   7.222   8.593   2.981 -0.2100 -0.1911  0.2614
 4421SOL    HW113441   7.287   8.648   2.929 -1.7792  0.9898 -0.5181
 4421SOL    HW213442   7.258   8.577   3.073  0.7472  1.2578  0.1653
 4422SOL     OW13443   0.110   3.092   4.611  0.1467 -0.7339 -0.3063
 4422SOL    HW113444   0.096   3.190   4.627  0.0240 -0.2954 -2.6841
 4422SOL    HW213445   0.027   3.052   4.575  1.4626 -0.5527 -3.9845
 4423SOL     OW13446   0.146   0.373   1.556 -0.8132 -0.1158  0.9574
 4423SOL    HW113447   0.074   0.431   1.594 -0.3354  0.9370  0.3061
 4423SOL    HW213448   0.180   0.413   1.471 -0.8031 -1.6254  0.2235
 4424SOL     OW13449   0.044   0.503   3.536  0.1692 -0.1689  0.2046
 4424SOL    HW113450   0.103   0.552   3.472 -0.4930  3.0344  1.8350
 4424SOL    HW213451   0.097   0.476   3.616  0.0862 -0.1452  0.2679
 4425SOL     OW13452   0.695   7.948   3.331 -0.6212  0.2728  0.2894
 4425SOL    HW113453   0.625   7.946   3.259 -0.3049 -1.3114 -0.0223
 4425SOL    HW213454   0.734   7.856   3.341 -0.3122  0.5740  2.1536
 4426SOL     OW13455   2.668   4.342   3.538  0.3069  0.0869  0.2018
 4426SOL    HW113456   2.722   4.300   3.464  0.6446  0.5461  0.1844
 4426SOL    HW213457   2.684   4.441   3.539 -2.8804  0.7806 -1.7992
 4427SOL     OW13458   3.749   1.582   2.208 -0.0225  0.1020 -0.3960
 4427SOL    HW113459   3.796   1.549   2.290 -0.2086  0.8508  0.0206
 4427SOL    HW213460   3.701   1.506   2.164 -0.5546 -0.1598  0.6189
 4428SOL     OW13461   3.603   3.932   1.957  0.2119  0.2078  0.1480
 4428SOL    HW113462   3.659   3.880   2.023 -0.2014  0.8371  1.0140
 4428SOL    HW213463   3.515   3.886   1.945  0.0184  0.4600  0.5749
 4429SOL     OW13464   4.254   6.927   1.418  0.0853 -0.4071 -0.0759
 4429SOL    HW113465   4.231   6.863   1.345 -0.0214 -0.2099 -0.2159
 4429SOL    HW213466   4.179   6.992   1.431  0.1215 -0.4160  0.1804
 4430SOL     OW13467   8.712   0.892   8.199  0.3065 -0.2053 -0.2814
 4430SOL    HW113468   8.759   0.830   8.262 -1.2246 -0.7443  0.3547
 4430SOL    HW213469   8.617   0.902   8.226  0.0787  1.0345 -1.4370
 4431SOL     OW13470   4.914   7.014   1.482  0.2914  0.3339 -0.1531
 4431SOL    HW113471   4.856   7.092   1.460  1.1442  1.0322  0.0406
 4431SOL    HW213472   4.985   7.005   1.412  0.2768 -0.1917 -0.1054
 4432SOL     OW13473   1.494   8.278   5.355 -0.0840  0.0093 -0.3060
 4432SOL    HW113474   1.470   8.242   5.446  1.2401  1.6359  0.7612
 4432SOL    HW213475   1.534   8.369   5.366 -0.5585  0.5396 -2.6243
 4433SOL     OW13476   4.699   0.083   3.402  0.3965  0.7509 -0.2373
 4433SOL    HW113477   4.750   0.054   3.321 -1.9486 -0.0901 -1.4952
 4433SOL    HW213478   4.690   0.006   3.466  1.8016  1.2763  0.6563
 4434SOL     OW13479   7.995   1.764   8.823 -0.2623  0.5830  0.4169
 4434SOL    HW113480   8.066   1.798   8.762 -0.0038 -0.7525 -0.0652
 4434SOL    HW213481   8.037   1.712   8.897 -0.7529 -2.2006 -1.1230
 4435SOL     OW13482   7.013   1.545   0.373 -0.4111  0.4664  0.0378
 4435SOL    HW113483   7.108   1.573   0.366  0.6448 -2.1244  2.1001
 4435SOL    HW213484   6.998   1.465   0.315 -0.5419 -0.7523  1.6818
 4436SOL     OW13485   1.769   1.416   1.921  0.0642  0.1783  0.2253
 4436SOL    HW113486   1.863   1.442   1.896  0.3922  0.5162  1.7409
 4436SOL    HW213487   1.771   1.326   1.966 -0.3383  0.2054  0.2961
 4437SOL     OW13488   0.273   4.658   4.383  0.5523 -0.3166  0.0410
 4437SOL    HW113489   0.268   4.753   4.413  0.4909 -0.1370 -0.5210
 4437SOL    HW213490   0.194   4.637   4.325  0.0077 -1.0262  1.0171
 4438SOL     OW13491   4.472   7.670   3.144 -0.3422  0.3573  0.3770
 4438SOL    HW113492   4.532   7.691   3.067  0.3141 -0.1789  0.7352
 4438SOL    HW213493   4.425   7.583   3.127 -1.6671  1.1597 -0.2736
 4439SOL     OW13494   3.874   1.274   7.196 -0.0302 -0.0642  0.1033
 4439SOL    HW113495   3.780   1.242   7.203 -0.4674  1.1366 -0.0193
 4439SOL    HW213496   3.927   1.242   7.275 -0.1378 -1.9914 -0.5686
 4440SOL     OW13497   6.928   8.040   3.430 -0.4686  0.1695 -0.0487
 4440SOL    HW113498   6.896   8.074   3.518  2.8564 -0.1650  1.4162
 4440SOL    HW213499   6.941   8.116   3.366  2.8505  1.3498  1.8177
 4441SOL     OW13500   2.742   8.700   2.317 -0.6621  0.2876  0.3728
 4441SOL    HW113501   2.829   8.667   2.354 -1.2166  0.3318  1.7782
 4441SOL    HW213502   2.715   8.783   2.365 -2.0617 -0.3781  0.7675
 4442SOL     OW13503   5.930   4.146   7.001 -0.1916 -0.2158 -0.2380
 4442SOL    HW113504   5.840   4.155   7.044 -0.4289 -0.9039 -0.5699
 4442SOL    HW213505   5.994   4.105   7.066 -0.3545 -0.5508 -0.2833
 4443SOL     OW13506   0.621   3.034   1.625  0.2216 -0.0151 -0.6631
 4443SOL    HW113507   0.660   3.126   1.620 -1.9196  1.0140  0.3239
 4443SOL    HW213508   0.611   3.007   1.720 -0.4308 -0.7040 -0.9148
 4444SOL     OW13509   3.892   0.944   3.917 -0.0634  0.5202 -0.1838
 4444SOL    HW113510   3.891   0.927   4.015  1.5320  2.6054  0.2429
 4444SOL    HW213511   3.982   0.922   3.880 -0.4007  0.5418 -1.0553
 4445SOL     OW13512   7.517   6.280   8.738 -0.4153 -0.4489  0.1966
 4445SOL    HW113513   7.442   6.323   8.688 -0.3424  1.8407  1.9196
 4445SOL    HW213514   7.510   6.302   8.835  1.2458 -2.0624  0.7385
 4446SOL     OW13515   2.470   1.789   7.600 -0.0368  0.1958  0.4537
 4446SOL    HW113516   2.505   1.865   7.546  0.8871 -0.8015 -0.3979
 4446SOL    HW213517   2.370   1.794   7.604 -0.1551  0.2428 -1.4919
 4447SOL     OW13518   1.012   8.692   0.395 -0.0227  0.5685 -0.0603
 4447SOL    HW113519   1.000   8.642   0.310  0.4388  1.9786 -0.9893
 4447SOL    HW213520   1.065   8.775   0.378  1.9032 -0.1165  1.9480
 4448SOL     OW13521   1.075   4.723   4.713  0.1702  0.2537 -0.0923
 4448SOL    HW113522   1.141   4.660   4.755  0.2766  0.8167  0.5989
 4448SOL    HW213523   1.098   4.735   4.616  0.4172 -0.4103 -0.1243
 4449SOL     OW13524   5.924   7.886   3.797  0.3417  0.1869  0.1835
 4449SOL    HW113525   5.856   7.883   3.723  0.7135  1.5918 -0.2312
 4449SOL    HW213526   5.878   7.900   3.884  0.1032  1.7017 -0.1597
 4450SOL     OW13527   4.184   4.975   8.190  0.3263 -0.0197  0.2994
 4450SOL    HW113528   4.156   5.040   8.119  0.0327  0.9289  1.2530
 4450SOL    HW213529   4.151   4.884   8.167  1.2779  0.0287 -1.3776
 4451SOL     OW13530   3.686   2.886   8.625  0.4153  0.4294  0.0890
 4451SOL    HW113531   3.635   2.913   8.543  0.1577 -0.7700 -0.1552
 4451SOL    HW213532   3.741   2.805   8.605  0.8468  0.4992  0.9366
 4452SOL     OW13533   3.966   7.986   8.739  0.4937  0.5480 -0.2180
 4452SOL    HW113534   3.883   8.000   8.793 -1.1576  0.9206 -2.6914
 4452SOL    HW213535   4.002   7.894   8.755 -0.3626  0.4034  0.9282
 4453SOL     OW13536   8.333   0.328   5.104  0.2209 -0.3954 -0.5115
 4453SOL    HW113537   8.302   0.404   5.162 -1.5394 -1.4723  0.0418
 4453SOL    HW213538   8.298   0.340   5.011  0.3197 -0.2934 -0.5348
 4454SOL     OW13539   0.308   2.843   2.211 -0.4006  0.2318 -0.4057
 4454SOL    HW113540   0.233   2.884   2.264 -0.4481 -0.3259 -0.0313
 4454SOL    HW213541   0.283   2.749   2.185  0.4152 -0.1874  0.2672
 4455SOL     OW13542   6.354   5.378   2.913  0.4020  0.1488  0.3015
 4455SOL    HW113543   6.328   5.447   2.845  1.6688  0.4729  0.1109
 4455SOL    HW213544   6.323   5.407   3.003  0.9249  0.9794  0.2242
 4456SOL     OW13545   7.644   7.862   0.834 -0.2848  0.5634 -0.2042
 4456SOL    HW113546   7.688   7.780   0.799  2.2184  1.9389 -0.4451
 4456SOL    HW213547   7.548   7.864   0.804  0.1675 -1.2140 -1.9173
 4457SOL     OW13548   6.929   2.662   5.149 -0.4037 -0.7224  0.2737
 4457SOL    HW113549   6.987   2.622   5.078 -0.4070 -1.1010  0.4831
 4457SOL    HW213550   6.839   2.619   5.146  0.0444 -1.8045  1.4667
 4458SOL     OW13551   4.975   2.378   4.519  0.1698 -0.1062  0.2511
 4458SOL    HW113552   4.989   2.327   4.435  0.9780 -0.9446  0.8712
 4458SOL    HW213553   4.880   2.367   4.550 -0.4497  1.1024 -1.0888
 4459SOL     OW13554   8.438   4.940   1.805 -0.0464  0.3533 -0.7246
 4459SOL    HW113555   8.463   4.877   1.880 -2.9670  0.0893  0.1419
 4459SOL    HW213556   8.406   5.026   1.844 -1.7631  0.1564 -1.6181
 4460SOL     OW13557   3.800   6.968   7.057  0.0490  0.5428 -0.6507
 4460SOL    HW113558   3.717   7.002   7.012 -0.6159  1.1678  0.9760
 4460SOL    HW213559   3.784   6.962   7.155  1.0712 -1.8680 -0.5639
 4461SOL     OW13560   6.799   2.419   8.366  0.0538 -0.0519  0.1593
 4461SOL    HW113561   6.880   2.426   8.308  0.1328 -0.6111  0.1971
 4461SOL    HW213562   6.738   2.496   8.347 -0.5319 -0.8971 -1.6222
 4462SOL     OW13563   5.647   7.463   4.212 -0.3449  0.3289 -0.2576
 4462SOL    HW113564   5.636   7.487   4.309  2.0823  2.8043 -0.4742
 4462SOL    HW213565   5.629   7.365   4.200  1.3746 -0.5683  3.1499
 4463SOL     OW13566   5.215   7.505   3.261  0.1608 -0.4444  0.2104
 4463SOL    HW113567   5.274   7.445   3.316  1.7522  0.9868  0.1400
 4463SOL    HW213568   5.267   7.543   3.185 -1.1778  0.0081 -0.5078
 4464SOL     OW13569   7.535   8.530   8.764 -0.2357 -0.4420  0.3796
 4464SOL    HW113570   7.572   8.459   8.706 -0.8444 -0.7853  0.4003
 4464SOL    HW213571   7.479   8.593   8.709  2.8601  1.9529 -0.2845
 4465SOL     OW13572   0.994   0.683   3.948  0.5168  0.5763  0.5855
 4465SOL    HW113573   1.029   0.736   3.871 -1.1681  0.2350 -0.4747
 4465SOL    HW213574   1.052   0.603   3.962  0.0679 -0.1159 -1.2708
 4466SOL     OW13575   5.686   3.385   6.287 -0.1607 -0.4058  0.2453
 4466SOL    HW113576   5.595   3.423   6.306 -0.4863 -0.8971 -0.2793
 4466SOL    HW213577   5.715   3.414   6.196  0.3751  0.0459  0.5525
 4467SOL     OW13578   2.825   2.711   4.479 -0.2066 -0.6527 -0.2660
 4467SOL    HW113579   2.893   2.670   4.540 -0.9944 -1.9520 -0.2073
 4467SOL    HW213580   2.758   2.641   4.453 -1.6755  0.6359 -0.0986
 4468SOL     OW13581   2.572   0.049   4.333 -0.0291  0.3024  0.1702
 4468SOL    HW113582   2.568   0.062   4.432 -2.1781  0.5118  0.1069
 4468SOL    HW213583   2.480   0.028   4.299  0.1775  2.5776 -2.0870
 4469SOL     OW13584   6.376   1.866   7.569  0.3912  0.2258  0.4075
 4469SOL    HW113585   6.439   1.855   7.493 -1.1383 -1.5725 -0.6851
 4469SOL    HW213586   6.398   1.949   7.620  2.9108  0.2147 -0.5680
 4470SOL     OW13587   6.021   5.284   3.549  0.0642 -0.0748 -0.5315
 4470SOL    HW113588   6.103   5.336   3.527  0.1693  0.4881  1.0504
 4470SOL    HW213589   5.946   5.312   3.489  0.3543  1.2821 -0.2947
 4471SOL     OW13590   0.359   2.497   4.895  0.3694 -0.2388 -0.0747
 4471SOL    HW113591   0.335   2.498   4.992 -1.8627 -2.7398 -0.4717
 4471SOL    HW213592   0.394   2.407   4.870 -1.7801 -0.6141 -2.0691
 4472SOL     OW13593   4.356   6.646   5.478 -0.3819  0.1331  0.0949
 4472SOL    HW113594   4.340   6.610   5.570  0.2342 -0.5938 -0.0635
 4472SOL    HW213595   4.450   6.625   5.451 -0.6074  0.1970 -0.7608
 4473SOL     OW13596   4.626   7.172   5.542 -0.6127 -0.0949 -0.1943
 4473SOL    HW113597   4.641   7.219   5.629 -2.2348 -0.7137  0.4726
 4473SOL    HW213598   4.527   7.167   5.524 -0.4351 -2.0525 -0.8762
 4474SOL     OW13599   5.988   5.958   8.782 -0.2004  0.0093  0.2804
 4474SOL    HW113600   5.951   5.931   8.693  1.3296  1.1198 -0.7522
 4474SOL    HW213601   5.962   5.891   8.851 -0.9388 -1.2007 -1.1191
 4475SOL     OW13602   8.663   7.295   6.262 -0.1945  0.4491 -0.0288
 4475SOL    HW113603   8.755   7.278   6.295  0.0136  0.6740 -0.4742
 4475SOL    HW213604   8.668   7.341   6.173 -0.7374 -0.4123 -0.5118
 4476SOL     OW13605   0.414   4.589   8.128  0.0133 -0.1801  0.3694
 4476SOL    HW113606   0.335   4.530   8.108  0.3145 -0.7401  0.7886
 4476SOL    HW213607   0.398   4.636   8.215  0.3452 -0.6730  0.7036
 4477SOL     OW13608   7.837   8.305   7.987  0.4313 -0.1897 -0.3472
 4477SOL    HW113609   7.816   8.268   8.078  1.1619  0.5568  0.1379
 4477SOL    HW213610   7.753   8.342   7.946 -0.3504 -2.3601 -0.8791
 4478SOL     OW13611   4.807   5.526   6.848 -0.4346 -0.2922 -0.2800
 4478SOL    HW113612   4.708   5.515   6.850 -0.3240 -1.5858 -0.6007
 4478SOL    HW213613   4.845   5.472   6.773  0.3407  2.0700 -1.6932
 4479SOL     OW13614   5.196   0.687   0.504  0.2194  0.5514 -0.3926
 4479SOL    HW113615   5.105   0.687   0.463 -0.8248  1.1314  1.7625
 4479SOL    HW213616   5.243   0.602   0.481 -1.4451 -0.4110 -0.4011
 4480SOL     OW13617   5.158   4.215   7.730 -0.4321 -0.4386  0.1442
 4480SOL    HW113618   5.162   4.184   7.635 -1.2991  1.5238 -0.5783
 4480SOL    HW213619   5.063   4.232   7.756 -0.0925  0.3147  0.9437
 4481SOL     OW13620   8.826   5.439   5.494  0.2567 -0.5653  0.2567
 4481SOL    HW113621   8.846   5.461   5.589 -0.3466  0.8713  0.0697
 4481SOL    HW213622   8.861   5.511   5.435 -1.6841 -0.1029 -0.4018
 4482SOL     OW13623   5.459   1.023   6.857  0.6291 -0.6864 -0.3062
 4482SOL    HW113624   5.499   0.939   6.894  0.4263 -0.1133  1.2925
 4482SOL    HW213625   5.531   1.093   6.849  0.7953 -0.9893 -1.6228
 4483SOL     OW13626   8.811   2.228   1.136 -0.5138  0.1956 -0.2107
 4483SOL    HW113627   8.803   2.208   1.039  1.5413  0.1541 -0.4156
 4483SOL    HW213628   8.830   2.325   1.149 -1.0510  0.2531  0.1656
 4484SOL     OW13629   4.198   2.435   3.367 -0.4950 -0.8346 -0.3274
 4484SOL    HW113630   4.297   2.420   3.371 -0.4888 -1.2817 -1.6480
 4484SOL    HW213631   4.154   2.385   3.442  0.4074  1.0516  1.6036
 4485SOL     OW13632   6.106   5.963   8.097  0.1547  0.1036 -0.2369
 4485SOL    HW113633   6.056   5.894   8.044  1.6088 -1.0524 -0.1708
 4485SOL    HW213634   6.082   5.955   8.194 -1.1782  1.0476 -0.4662
 4486SOL     OW13635   7.336   5.334   2.580  0.5262 -0.3006  0.0369
 4486SOL    HW113636   7.332   5.419   2.633  1.0506 -0.0203 -0.3606
 4486SOL    HW213637   7.360   5.258   2.640  1.6553  0.1025  0.1073
 4487SOL     OW13638   8.132   7.700   0.968  0.1885 -0.0240 -0.0641
 4487SOL    HW113639   8.120   7.720   1.065 -0.1974  0.8851 -0.2914
 4487SOL    HW213640   8.083   7.768   0.913 -1.2565 -1.6366 -0.8873
 4488SOL     OW13641   7.060   4.849   1.552 -0.4249  0.3785  0.4127
 4488SOL    HW113642   7.056   4.881   1.457 -0.3049  0.2206  0.3543
 4488SOL    HW213643   7.099   4.757   1.554  0.7301  0.8666  0.7289
 4489SOL     OW13644   7.490   4.563   5.393  0.0857 -0.3123  0.7386
 4489SOL    HW113645   7.585   4.531   5.404  0.0128 -0.3169  1.4432
 4489SOL    HW213646   7.477   4.598   5.301  0.8616 -0.0392  0.7207
 4490SOL     OW13647   8.266   6.584   8.516  0.0085 -0.5667  0.3015
 4490SOL    HW113648   8.191   6.526   8.483 -1.0344  0.4010  0.9021
 4490SOL    HW213649   8.239   6.680   8.511  1.9709 -0.0207 -1.3445
 4491SOL     OW13650   4.665   0.522   3.382  0.2828  0.0325 -0.5185
 4491SOL    HW113651   4.649   0.561   3.291 -1.5514  1.1553  0.2206
 4491SOL    HW213652   4.725   0.582   3.434  1.0099 -0.4093 -0.8263
 4492SOL     OW13653   1.313   3.158   8.780 -0.5041 -1.1325  0.4224
 4492SOL    HW113654   1.316   3.241   8.836 -2.8364  0.1213 -1.1761
 4492SOL    HW213655   1.367   3.172   8.697 -0.8651 -1.2194  0.1694
 4493SOL     OW13656   5.660   6.774   6.627 -0.0698 -0.1376  0.0405
 4493SOL    HW113657   5.747   6.726   6.615  0.2614  0.3506  0.4672
 4493SOL    HW213658   5.623   6.797   6.537  1.7820  2.3941 -0.1680
 4494SOL     OW13659   1.889   7.852   5.342  0.3962  0.2261 -0.1980
 4494SOL    HW113660   1.879   7.770   5.287 -1.2655  0.6208 -0.5517
 4494SOL    HW213661   1.972   7.901   5.315  0.3183 -0.2856 -1.4057
 4495SOL     OW13662   1.013   6.297   3.393  0.1587 -0.3535 -0.1425
 4495SOL    HW113663   0.942   6.252   3.447 -0.1454 -2.2733 -2.0685
 4495SOL    HW213664   1.102   6.276   3.433 -0.1541 -0.1528  0.7044
 4496SOL     OW13665   3.725   1.939   3.377 -0.1169  0.4553  0.2926
 4496SOL    HW113666   3.646   1.963   3.320 -0.2171  0.1072  0.2799
 4496SOL    HW213667   3.697   1.871   3.445  0.6346 -1.3350 -1.0907
 4497SOL     OW13668   1.047   1.662   4.290 -0.5638 -0.2795  0.4301
 4497SOL    HW113669   1.070   1.728   4.218 -1.7791 -1.2604 -0.9051
 4497SOL    HW213670   1.087   1.692   4.376  4.4064 -0.9892 -1.2848
 4498SOL     OW13671   0.525   4.745   2.550 -0.0672  0.2840  0.2965
 4498SOL    HW113672   0.624   4.737   2.556  0.2264  2.3002 -0.9481
 4498SOL    HW213673   0.498   4.839   2.572 -1.8547 -0.5178  1.8314
 4499SOL     OW13674   6.488   0.094   8.153  0.5429  0.1125 -0.2911
 4499SOL    HW113675   6.519   0.147   8.232 -2.0760  0.1781  0.7948
 4499SOL    HW213676   6.515   0.141   8.069  0.2729  1.9840  0.6242
 4500SOL     OW13677   6.805   8.344   4.849  0.0844 -0.3375  0.0895
 4500SOL    HW113678   6.764   8.432   4.827  0.7063 -0.4492 -1.6266
 4500SOL    HW213679   6.879   8.357   4.915  0.7138  0.5377 -0.7821
 4501SOL     OW13680   7.535   7.350   1.504  0.5365 -0.0981  0.7727
 4501SOL    HW113681   7.573   7.341   1.596 -1.7458 -2.1701  1.6253
 4501SOL    HW213682   7.564   7.272   1.448  0.6872  0.3660  0.1931
 4502SOL     OW13683   7.728   8.436   5.884  0.6172 -0.3729 -0.2354
 4502SOL    HW113684   7.760   8.489   5.963 -0.1216 -0.8788  0.4247
 4502SOL    HW213685   7.672   8.495   5.826 -3.0796 -1.1157  2.2403
 4503SOL     OW13686   2.664   6.729   6.705  0.4906 -0.5338  0.1421
 4503SOL    HW113687   2.595   6.784   6.751  2.3532  1.5983  0.6080
 4503SOL    HW213688   2.643   6.722   6.607  0.4207  1.4800 -0.0176
 4504SOL     OW13689   8.399   2.643   7.733 -0.3373 -0.4487  0.5566
 4504SOL    HW113690   8.320   2.585   7.713 -1.0443  0.7116 -0.0549
 4504SOL    HW213691   8.377   2.703   7.810  0.1371 -0.4710  0.7122
 4505SOL     OW13692   5.948   6.103   2.520 -0.0198 -0.3780 -0.6920
 4505SOL    HW113693   5.999   6.189   2.521  0.6194 -0.6889  2.0992
 4505SOL    HW213694   6.001   6.034   2.471  2.0962 -0.5194  1.5696
 4506SOL     OW13695   6.974   6.785   8.270  0.2031 -0.1298  0.3625
 4506SOL    HW113696   6.920   6.729   8.333  0.0710  1.2696  1.5611
 4506SOL    HW213697   6.980   6.739   8.181 -1.5389 -1.1035  0.6967
 4507SOL     OW13698   3.285   1.505   0.176  0.4713 -0.4829  0.0139
 4507SOL    HW113699   3.368   1.481   0.126 -0.5652  0.6297 -2.3738
 4507SOL    HW213700   3.231   1.423   0.191  0.3106 -0.7234 -1.6949
 4508SOL     OW13701   0.638   0.708   4.286 -0.0262 -0.1787  0.0769
 4508SOL    HW113702   0.692   0.702   4.202 -0.8227 -2.1045 -0.3446
 4508SOL    HW213703   0.670   0.640   4.351 -1.1629 -0.5659  0.2573
 4509SOL     OW13704   3.646   0.131   7.358  0.1777  0.8813 -0.1435
 4509SOL    HW113705   3.704   0.181   7.422  0.4081  0.2881  0.1233
 4509SOL    HW213706   3.553   0.126   7.395  0.3358  0.4452  0.2018
 4510SOL     OW13707   6.017   0.049   5.705  0.2606  0.1545 -0.1395
 4510SOL    HW113708   5.941   0.077   5.646  0.7783  1.1650 -0.3539
 4510SOL    HW213709   5.981   0.008   5.789 -0.6153  2.1724  0.5462
 4511SOL     OW13710   6.543   3.191   2.817 -0.6511 -0.5313  0.3331
 4511SOL    HW113711   6.514   3.143   2.734  0.1825  0.9827 -0.8813
 4511SOL    HW213712   6.635   3.162   2.842 -0.1111  0.4459 -0.4535
 4512SOL     OW13713   6.539   3.131   6.009  0.1660  0.5735  0.6263
 4512SOL    HW113714   6.500   3.056   5.957  1.9871  0.2360 -0.3502
 4512SOL    HW213715   6.477   3.210   6.007 -0.0164  0.4433 -1.7498
 4513SOL     OW13716   3.043   3.426   2.057 -0.7018 -0.2977  0.7502
 4513SOL    HW113717   2.961   3.474   2.088 -1.0852  0.7483 -1.6374
 4513SOL    HW213718   3.107   3.417   2.133 -1.6670  1.7657  1.9047
 4514SOL     OW13719   8.804   0.403   0.631 -1.0776  0.1279  0.4301
 4514SOL    HW113720   8.749   0.481   0.661 -4.0385 -1.0611 -1.3905
 4514SOL    HW213721   8.753   0.351   0.562  2.1181 -1.5909 -0.8743
 4515SOL     OW13722   8.313   6.677   6.744  0.1565 -0.3259 -0.0195
 4515SOL    HW113723   8.372   6.597   6.731  0.0843 -0.5861  1.1131
 4515SOL    HW213724   8.293   6.688   6.842  1.2468  1.8352  0.0267
 4516SOL     OW13725   0.990   7.450   8.618  0.2646 -0.4935 -0.3873
 4516SOL    HW113726   0.979   7.519   8.690  1.4761  0.5424 -1.1453
 4516SOL    HW213727   0.983   7.494   8.529  2.0644 -1.1610 -0.8924
 4517SOL     OW13728   6.998   0.630   1.344  0.2736 -0.1270  0.4058
 4517SOL    HW113729   6.927   0.678   1.396 -0.1609 -0.1935 -0.1203
 4517SOL    HW213730   7.015   0.541   1.387  0.5773  0.1944  0.9691
 4518SOL     OW13731   6.812   2.390   3.544 -0.7359  0.3576  0.2181
 4518SOL    HW113732   6.895   2.357   3.588 -1.5599 -0.7608  0.9683
 4518SOL    HW213733   6.785   2.327   3.471 -1.7607 -0.1170  0.9883
 4519SOL     OW13734   8.186   5.850   1.077  0.2078  0.0790  0.2170
 4519SOL    HW113735   8.265   5.795   1.053 -0.8481 -1.3211 -0.1740
 4519SOL    HW213736   8.143   5.814   1.160 -0.9432 -0.1938 -0.4735
 4520SOL     OW13737   8.039   4.722   0.868 -0.8055  0.0858  0.2593
 4520SOL    HW113738   8.121   4.739   0.922 -0.5653  1.8110 -0.5888
 4520SOL    HW213739   7.958   4.747   0.922 -0.6866 -0.0703  0.5109
 4521SOL     OW13740   3.216   0.862   5.598 -0.0066  0.0606 -0.0823
 4521SOL    HW113741   3.274   0.936   5.562 -0.0206  1.4404  2.5212
 4521SOL    HW213742   3.255   0.774   5.572  0.9915  0.9458 -1.7978
 4522SOL     OW13743   3.843   0.504   6.454 -0.0679  0.3597 -0.2431
 4522SOL    HW113744   3.786   0.483   6.533  0.4971  0.3426  0.1696
 4522SOL    HW213745   3.893   0.421   6.425  0.2309  0.5205 -0.1971
 4523SOL     OW13746   1.827   6.817   7.056  0.1148 -0.1844 -0.2521
 4523SOL    HW113747   1.837   6.916   7.070 -1.8086 -0.1629  1.3744
 4523SOL    HW213748   1.881   6.789   6.977  1.1643  2.0614 -0.4009
 4524SOL     OW13749   4.033   4.319   2.711  0.2929  0.1108  0.5477
 4524SOL    HW113750   4.102   4.366   2.766  2.9711 -3.8672  0.9794
 4524SOL    HW213751   4.062   4.317   2.616 -0.2369  0.0494  0.3819
 4525SOL     OW13752   5.150   4.196   6.821 -0.4277 -0.1177 -0.0352
 4525SOL    HW113753   5.067   4.250   6.840 -1.6052 -2.1814  1.0272
 4525SOL    HW213754   5.127   4.120   6.761  0.9911 -0.0631 -0.6781
 4526SOL     OW13755   1.930   2.986   7.885  0.0055  0.0084  0.1340
 4526SOL    HW113756   1.963   2.900   7.924  0.3533  0.0917  0.0235
 4526SOL    HW213757   1.999   3.024   7.823 -1.2307 -1.0393 -2.0203
 4527SOL     OW13758   6.967   5.018   4.193  0.3157 -0.2801 -0.1021
 4527SOL    HW113759   6.879   5.064   4.185 -0.5068 -1.8498 -0.5001
 4527SOL    HW213760   6.972   4.944   4.127  1.8544 -0.3742  0.0802
 4528SOL     OW13761   1.304   2.554   0.622  0.0120 -0.2683  0.3225
 4528SOL    HW113762   1.208   2.575   0.636 -0.1883 -0.6828 -0.3820
 4528SOL    HW213763   1.313   2.467   0.573  0.6443  0.8891 -1.7399
 4529SOL     OW13764   0.056   0.939   0.800 -0.0125 -0.2971  0.0929
 4529SOL    HW113765   0.127   1.006   0.779 -1.0924  0.3687 -1.5831
 4529SOL    HW213766   0.079   0.893   0.886  1.6692  0.9369  0.3606
 4530SOL     OW13767   5.899   7.201   6.616  0.0698 -0.3280 -0.0935
 4530SOL    HW113768   5.997   7.187   6.632  0.0047  0.0482  0.6445
 4530SOL    HW213769   5.886   7.287   6.566  0.0668 -0.0250  0.4282
 4531SOL     OW13770   7.073   2.555   0.385  0.3831 -0.1893 -0.0933
 4531SOL    HW113771   7.105   2.465   0.416  0.6588 -0.2807 -0.6270
 4531SOL    HW213772   7.132   2.587   0.310 -0.2090  0.0727 -0.4538
 4532SOL     OW13773   0.804   5.500   0.260 -0.8486  0.2301  0.9015
 4532SOL    HW113774   0.903   5.494   0.269 -0.8010 -1.1219 -0.1589
 4532SOL    HW213775   0.761   5.427   0.312 -1.3539  1.1960  1.8886
 4533SOL     OW13776   7.233   7.674   3.531 -0.3549 -0.4143  0.4602
 4533SOL    HW113777   7.169   7.602   3.559 -1.6019  0.6086  0.3774
 4533SOL    HW213778   7.326   7.639   3.533 -0.8439 -1.7583  1.2973
 4534SOL     OW13779   8.546   8.847   4.610  0.0899 -0.2802 -0.0846
 4534SOL    HW113780   8.640   8.822   4.630  0.6738  1.6937 -0.0783
 4534SOL    HW213781   8.484   8.805   4.676  1.0017 -1.1884  0.2136
 4535SOL     OW13782   0.089   7.096   6.619 -0.5197 -0.0399 -0.3550
 4535SOL    HW113783   0.103   7.192   6.596 -1.2262 -0.4465 -2.7995
 4535SOL    HW213784   0.178   7.051   6.629 -0.1264  0.3296 -1.9021
 4536SOL     OW13785   5.268   5.012   1.768  0.0570  0.2264 -0.2340
 4536SOL    HW113786   5.314   4.940   1.715  1.0089  0.5537  0.1206
 4536SOL    HW213787   5.200   4.971   1.828  0.2380 -0.3339 -0.4045
 4537SOL     OW13788   4.452   5.788   8.711 -0.2566  0.0496 -0.5556
 4537SOL    HW113789   4.383   5.859   8.729 -0.9714 -0.7912  0.1400
 4537SOL    HW213790   4.482   5.794   8.616  0.1467  1.6625 -0.3501
 4538SOL     OW13791   8.775   0.243   7.796 -0.7278  0.0498 -0.2139
 4538SOL    HW113792   8.872   0.232   7.818 -0.8165 -0.8536 -0.2201
 4538SOL    HW213793   8.739   0.155   7.763 -1.3390  0.5870 -1.0186
 4539SOL     OW13794   4.513   3.240   6.222  0.2200  0.6840 -0.1638
 4539SOL    HW113795   4.474   3.333   6.216 -0.1672  0.4559 -1.7528
 4539SOL    HW213796   4.483   3.187   6.143  0.6526 -0.7364  0.5953
 4540SOL     OW13797   0.957   1.587   3.958  0.2816 -0.0428  0.0878
 4540SOL    HW113798   0.874   1.644   3.965  0.6694  0.4198  1.0878
 4540SOL    HW213799   0.948   1.508   4.019  0.1550 -0.5539 -0.5780
 4541SOL     OW13800   3.418   8.446   4.566  0.0271  0.3862  0.0879
 4541SOL    HW113801   3.368   8.519   4.613  1.3064  1.3961 -0.0819
 4541SOL    HW213802   3.352   8.384   4.522 -1.1005  0.9303  0.9663
 4542SOL     OW13803   3.510   6.476   0.291  0.5008 -0.0660 -0.4365
 4542SOL    HW113804   3.575   6.487   0.366  1.0634  0.1472 -0.9418
 4542SOL    HW213805   3.534   6.395   0.238 -0.8913 -1.1699  0.5820
 4543SOL     OW13806   2.419   6.155   7.985 -0.0671 -0.0112 -0.0562
 4543SOL    HW113807   2.425   6.169   8.084  4.1480  0.1132 -0.1779
 4543SOL    HW213808   2.371   6.233   7.944 -0.3970  0.7907  1.7205
 4544SOL     OW13809   3.066   4.785   6.669  0.2090 -0.5366 -0.6091
 4544SOL    HW113810   3.008   4.707   6.692  1.7300 -1.4694  0.2792
 4544SOL    HW213811   3.094   4.780   6.573  0.2805 -1.0925 -0.5610
 4545SOL     OW13812   3.341   1.143   4.784  0.0817  0.0810 -0.2535
 4545SOL    HW113813   3.293   1.222   4.823  1.2187  0.5514  0.2535
 4545SOL    HW213814   3.437   1.167   4.769  0.6202 -1.4101  0.5674
 4546SOL     OW13815   0.797   0.033   2.726 -0.1455 -0.1630 -0.2345
 4546SOL    HW113816   0.789  -0.023   2.809 -3.9136  0.3723 -0.0793
 4546SOL    HW213817   0.834   0.122   2.750 -0.3946 -0.3000  0.7305
 4547SOL     OW13818   1.644   4.184   6.491  0.1042 -0.2958 -0.3566
 4547SOL    HW113819   1.605   4.171   6.582 -0.3188 -0.7223 -0.5951
 4547SOL    HW213820   1.606   4.267   6.449 -1.1575 -1.1293 -0.8983
 4548SOL     OW13821   2.745   8.286   0.526  0.2159  0.2861  0.3928
 4548SOL    HW113822   2.688   8.227   0.469  0.5266  0.3484  0.0181
 4548SOL    HW213823   2.685   8.346   0.580 -0.1270 -1.0028  1.4833
 4549SOL     OW13824   8.002   8.777   4.081  0.2131 -0.9587  0.1361
 4549SOL    HW113825   8.068   8.730   4.140  3.3306  0.5074 -1.9070
 4549SOL    HW213826   7.991   8.725   3.996  1.1583  0.2743 -0.7780
 4550SOL     OW13827   4.448   4.612   1.816 -0.4139 -0.2746 -0.0196
 4550SOL    HW113828   4.394   4.564   1.885 -1.4994 -1.5607 -1.6671
 4550SOL    HW213829   4.411   4.704   1.803 -0.6547 -0.2802  0.5924
 4551SOL     OW13830   8.007   7.042   2.604  0.0273 -0.1218  0.4793
 4551SOL    HW113831   8.064   7.084   2.674 -0.0372 -0.4007  0.7023
 4551SOL    HW213832   8.049   6.956   2.574 -0.5191 -0.5958  1.0191
 4552SOL     OW13833   2.044   5.215   0.225 -0.0866 -0.2282 -0.4120
 4552SOL    HW113834   1.992   5.265   0.156 -0.2055 -0.2401 -0.3315
 4552SOL    HW213835   2.077   5.279   0.295 -1.1390 -0.4024  0.2617
 4553SOL     OW13836   0.611   5.520   2.731 -0.0061  0.1770 -0.0672
 4553SOL    HW113837   0.539   5.579   2.696  1.2480  1.8888  0.1256
 4553SOL    HW213838   0.585   5.483   2.820 -1.5452 -1.0436 -0.9680
 4554SOL     OW13839   5.755   1.342   5.914 -0.0852  0.3779 -0.8305
 4554SOL    HW113840   5.724   1.436   5.930  0.1092  0.5388 -1.4028
 4554SOL    HW213841   5.730   1.285   5.993  0.7649  1.1375  0.0080
 4555SOL     OW13842   0.318   5.217   4.691 -0.1462 -0.7202 -0.4328
 4555SOL    HW113843   0.225   5.231   4.656 -0.1816 -0.5249 -0.2657
 4555SOL    HW213844   0.326   5.261   4.780  0.7605  1.2025 -1.4171
 4556SOL     OW13845   3.535   0.522   8.696 -0.7835  0.3888  0.1288
 4556SOL    HW113846   3.602   0.563   8.758 -0.6344 -0.9088  0.8472
 4556SOL    HW213847   3.539   0.423   8.702 -1.1596  0.2312 -1.5641
 4557SOL     OW13848   4.250   3.381   1.307 -0.7702 -0.1336  0.2135
 4557SOL    HW113849   4.196   3.311   1.260 -0.0386 -0.4853 -0.1172
 4557SOL    HW213850   4.207   3.404   1.394 -1.3803 -0.5014  0.0149
 4558SOL     OW13851   2.875   7.047   3.876  0.1015 -0.1198 -0.0167
 4558SOL    HW113852   2.823   7.051   3.791  1.3886  1.1564 -0.7732
 4558SOL    HW213853   2.965   7.008   3.858  0.0534 -0.7443  0.9724
 4559SOL     OW13854   1.449   8.131   7.638  0.1984  0.0394 -0.4773
 4559SOL    HW113855   1.435   8.135   7.539  0.9402  0.9444 -0.5657
 4559SOL    HW213856   1.500   8.049   7.661 -0.4647 -0.4634 -0.7782
 4560SOL     OW13857   8.588   0.038   0.159  0.1123 -0.0990 -0.9123
 4560SOL    HW113858   8.641   0.010   0.078  0.7507 -0.5434 -0.3538
 4560SOL    HW213859   8.623   0.125   0.193  0.1519 -0.1457 -0.8342
 4561SOL     OW13860   3.209   8.691   5.005  0.5838 -0.6053 -0.0697
 4561SOL    HW113861   3.174   8.774   4.962  0.3541 -1.8577 -2.4778
 4561SOL    HW213862   3.132   8.636   5.038  0.6485 -0.4997  0.2546
 4562SOL     OW13863   6.557   7.289   2.212  0.0064  0.2644  0.4292
 4562SOL    HW113864   6.492   7.268   2.285 -0.2109  1.8453  0.7360
 4562SOL    HW213865   6.549   7.386   2.188  1.4701  0.2243 -0.3151
 4563SOL     OW13866   5.350   5.810   5.805  0.0228 -0.2623  0.5494
 4563SOL    HW113867   5.413   5.831   5.729 -0.2085 -0.1185  0.3962
 4563SOL    HW213868   5.383   5.856   5.888  1.5312 -2.2155  1.1003
 4564SOL     OW13869   3.006   2.313   4.711 -0.0251  0.2828 -0.4680
 4564SOL    HW113870   2.918   2.355   4.734 -1.0362 -0.7631 -2.1488
 4564SOL    HW213871   3.079   2.381   4.716 -0.9381  1.2151  0.8027
 4565SOL     OW13872   8.214   5.535   3.428 -0.3333  0.1459 -0.1880
 4565SOL    HW113873   8.227   5.437   3.439  0.3758  0.2610  0.0697
 4565SOL    HW213874   8.247   5.583   3.510 -2.9961  0.4463  0.8113
 4566SOL     OW13875   1.119   5.904   0.189  0.1440 -0.1089 -0.5912
 4566SOL    HW113876   1.040   5.959   0.219 -0.1183 -0.8812  0.1949
 4566SOL    HW213877   1.141   5.925   0.094 -2.4129 -1.4492 -1.5755
 4567SOL     OW13878   1.470   4.964   2.163  0.2210  0.3086  0.2738
 4567SOL    HW113879   1.410   4.890   2.133  0.9092 -0.1200 -0.0834
 4567SOL    HW213880   1.480   5.032   2.091  0.3784  0.2388  0.2284
 4568SOL     OW13881   7.105   0.152   3.062  0.0152 -0.4453  0.0592
 4568SOL    HW113882   7.029   0.216   3.049  0.9849  0.3735 -1.8633
 4568SOL    HW213883   7.081   0.064   3.022 -1.1573 -1.2417  2.3459
 4569SOL     OW13884   4.790   2.229   8.272 -0.1895  0.5971  0.3740
 4569SOL    HW113885   4.759   2.149   8.323  0.6315 -0.6422 -0.9745
 4569SOL    HW213886   4.890   2.228   8.266 -0.2398  1.0194 -0.7317
 4570SOL     OW13887   3.531   6.353   7.279 -0.0530 -0.1357  0.2375
 4570SOL    HW113888   3.470   6.433   7.280  0.1103 -0.0132  0.4491
 4570SOL    HW213889   3.617   6.378   7.236  0.0347 -0.1699  0.3912
 4571SOL     OW13890   8.624   8.855   5.187  0.4770 -0.1471 -0.1518
 4571SOL    HW113891   8.577   8.874   5.273 -1.5533  2.4937 -1.6986
 4571SOL    HW213892   8.704   8.914   5.178  0.4529 -0.1303 -0.2575
 4572SOL     OW13893   6.312   8.388   1.437  0.7489 -1.1387 -0.6028
 4572SOL    HW113894   6.259   8.306   1.419 -1.0668 -0.3849  0.9322
 4572SOL    HW213895   6.252   8.468   1.434  1.8052 -0.2183  1.0214
 4573SOL     OW13896   4.800   8.525   3.771  0.5648  0.0833  0.3776
 4573SOL    HW113897   4.817   8.427   3.765 -0.1882 -0.1483  1.6599
 4573SOL    HW213898   4.733   8.543   3.844  0.2077  1.4870 -0.2607
 4574SOL     OW13899   8.133   0.156   0.146  0.0874  0.0502 -0.2291
 4574SOL    HW113900   8.137   0.116   0.054  0.4251 -2.8801  0.9567
 4574SOL    HW213901   8.211   0.123   0.200  0.2205  2.1787  0.9622
 4575SOL     OW13902   8.231   7.477   0.718 -0.8550 -0.4157 -0.0251
 4575SOL    HW113903   8.185   7.528   0.790 -0.6187 -1.4520  0.8886
 4575SOL    HW213904   8.316   7.437   0.754 -0.5793 -0.7119 -0.9610
 4576SOL     OW13905   5.967   0.878   5.241  0.4537 -0.3492  0.6901
 4576SOL    HW113906   5.955   0.809   5.313 -3.8365  0.0488  0.5720
 4576SOL    HW213907   5.945   0.838   5.152  1.2331  0.3560  0.1605
 4577SOL     OW13908   0.488   5.977   8.087 -0.1417  0.0960 -0.6596
 4577SOL    HW113909   0.426   5.962   8.164 -1.3068  3.9634 -0.6146
 4577SOL    HW213910   0.434   6.004   8.007  1.3255  0.5755 -1.5195
 4578SOL     OW13911   3.306   1.951   7.476 -0.0170  0.4112 -0.1421
 4578SOL    HW113912   3.269   1.983   7.563  0.0777  0.0462  0.0358
 4578SOL    HW213913   3.251   1.875   7.443  0.7647 -0.3738  0.3003
 4579SOL     OW13914   8.733   4.632   5.265 -0.3192 -0.3668 -0.7627
 4579SOL    HW113915   8.685   4.595   5.345  2.2455  1.7214  2.0051
 4579SOL    HW213916   8.772   4.557   5.212  0.8515 -1.8660  2.0154
 4580SOL     OW13917   0.189   1.458   5.617  0.3226  0.0461 -0.4781
 4580SOL    HW113918   0.245   1.457   5.700  0.5338  1.1207 -0.5989
 4580SOL    HW213919   0.177   1.552   5.585 -0.4641 -0.2815 -1.1958
 4581SOL     OW13920   0.336   7.352   7.047  0.2113  0.4560 -0.3812
 4581SOL    HW113921   0.319   7.450   7.049 -0.9260  0.2520  0.3505
 4581SOL    HW213922   0.250   7.302   7.042  0.7094 -0.5293  0.3244
 4582SOL     OW13923   3.370   3.698   1.322 -0.7514  0.2993 -0.5599
 4582SOL    HW113924   3.362   3.677   1.225 -1.8262  1.4078 -0.7478
 4582SOL    HW213925   3.457   3.664   1.357  0.0334  0.6027 -2.1085
 4583SOL     OW13926   7.216   5.435   0.405  0.3511  0.5683  0.0088
 4583SOL    HW113927   7.116   5.438   0.411  0.3125  3.5300 -0.2551
 4583SOL    HW213928   7.243   5.408   0.313 -0.2726  1.1100 -0.3469
 4584SOL     OW13929   7.320   0.243   1.107  0.3080  0.0535  0.1711
 4584SOL    HW113930   7.322   0.294   1.020  1.1859  1.6849  1.0880
 4584SOL    HW213931   7.413   0.218   1.133 -0.0263 -1.1295  0.2740
 4585SOL     OW13932   7.625   4.213   2.713  0.1847  0.2512  0.3029
 4585SOL    HW113933   7.552   4.151   2.685  0.3528  0.1353  0.1212
 4585SOL    HW213934   7.709   4.161   2.727 -0.2056  0.0867  2.3336
 4586SOL     OW13935   3.087   3.223   8.082 -0.3731  0.6790 -0.2974
 4586SOL    HW113936   3.104   3.320   8.064 -2.0257  0.5252 -3.3971
 4586SOL    HW213937   3.153   3.168   8.030  0.3638  0.0832  1.2134
 4587SOL     OW13938   4.441   5.204   4.973  0.6042  0.4609  0.4389
 4587SOL    HW113939   4.463   5.299   4.992 -2.4794  1.0125  1.6268
 4587SOL    HW213940   4.481   5.145   5.044 -0.1150  1.1956  1.4599
 4588SOL     OW13941   0.162   7.571   0.681 -0.1498  0.0351 -0.3835
 4588SOL    HW113942   0.210   7.565   0.769  0.8850  0.2372 -0.9162
 4588SOL    HW213943   0.126   7.481   0.656  2.0902 -0.7267 -1.1178
 4589SOL     OW13944   7.582   0.750   7.394  0.0046 -0.1554  0.5238
 4589SOL    HW113945   7.676   0.718   7.388  0.2262  0.5969 -0.2050
 4589SOL    HW213946   7.581   0.849   7.412 -0.6572 -0.3621  1.7688
 4590SOL     OW13947   0.644   1.655   6.036 -0.3891  0.3082  0.2535
 4590SOL    HW113948   0.742   1.640   6.048 -0.2662  0.4776 -0.4882
 4590SOL    HW213949   0.609   1.714   6.110  0.4403  1.7889 -0.5046
 4591SOL     OW13950   5.112   1.725   1.214 -0.1320  0.4304  0.2675
 4591SOL    HW113951   5.072   1.739   1.124  1.1275  1.3922 -0.1790
 4591SOL    HW213952   5.212   1.735   1.208  0.2580 -2.2108  1.2558
 4592SOL     OW13953   6.749   6.113   8.649 -0.0311 -0.2069 -0.2082
 4592SOL    HW113954   6.669   6.102   8.590  0.1743 -0.4598 -0.4393
 4592SOL    HW213955   6.776   6.023   8.685  1.3763 -0.4369 -1.7330
 4593SOL     OW13956   7.242   4.449   8.296  0.7332  0.1551 -0.0865
 4593SOL    HW113957   7.217   4.497   8.212  1.9412  0.8660 -0.0602
 4593SOL    HW213958   7.200   4.358   8.297  0.6370  0.1720 -1.4092
 4594SOL     OW13959   1.485   0.269   6.101 -0.2989 -0.4629  0.2245
 4594SOL    HW113960   1.504   0.228   6.012 -1.6959 -0.5891 -0.0235
 4594SOL    HW213961   1.430   0.206   6.156 -0.9524  0.3539  0.5088
 4595SOL     OW13962   0.291   4.495   6.159 -0.5731 -1.2320  0.2992
 4595SOL    HW113963   0.239   4.506   6.074  0.7981 -1.9251 -0.6765
 4595SOL    HW213964   0.263   4.410   6.204 -1.0095 -1.0727  0.3388
 4596SOL     OW13965   5.872   0.558   0.210  0.5669 -0.4449 -0.2126
 4596SOL    HW113966   5.838   0.463   0.205 -0.7313 -0.4736  4.5648
 4596SOL    HW213967   5.834   0.610   0.133  0.6092 -3.4906 -2.5123
 4597SOL     OW13968   3.328   1.386   2.543  0.1981 -0.3845 -0.4939
 4597SOL    HW113969   3.231   1.370   2.526 -0.2651  1.5933  0.0036
 4597SOL    HW213970   3.367   1.436   2.465  1.3375 -2.8472 -1.5908
 4598SOL     OW13971   5.587   1.384   7.443  0.0463  0.0086  0.2402
 4598SOL    HW113972   5.634   1.330   7.374  1.6015 -0.3765  1.5457
 4598SOL    HW213973   5.557   1.471   7.402  0.8772 -0.2266 -0.9248
 4599SOL     OW13974   0.461   7.954   8.682  0.2703 -0.0887 -0.1429
 4599SOL    HW113975   0.525   7.996   8.747 -0.7602  1.2892  0.0214
 4599SOL    HW213976   0.499   7.963   8.589  0.0066  1.4025 -0.1324
 4600SOL     OW13977   3.658   0.222   0.682  0.3421  0.0713  0.4649
 4600SOL    HW113978   3.664   0.169   0.767 -0.3676 -2.2139 -0.8604
 4600SOL    HW213979   3.576   0.279   0.684  1.8587  2.4359  2.5275
 4601SOL     OW13980   0.152   3.494   1.333 -0.3808  0.3752 -0.6556
 4601SOL    HW113981   0.087   3.569   1.323 -1.5131 -0.6278 -1.0180
 4601SOL    HW213982   0.108   3.418   1.380  1.4343  0.7351  1.8456
 4602SOL     OW13983   0.881   2.913   0.409 -0.2172  0.9283  0.0989
 4602SOL    HW113984   0.808   2.951   0.352 -1.1455 -0.4411  0.3422
 4602SOL    HW213985   0.885   2.814   0.397 -0.7684  0.5091  2.7528
 4603SOL     OW13986   4.713   7.448   1.911  0.1862  0.3232  0.3214
 4603SOL    HW113987   4.812   7.434   1.912  0.0457 -1.1471 -1.5080
 4603SOL    HW213988   4.691   7.522   1.846  0.0742  0.5736  0.6444
 4604SOL     OW13989   4.731   2.933   3.539 -0.3139  0.0559  0.0693
 4604SOL    HW113990   4.686   2.862   3.594  0.3790  0.3317  1.0001
 4604SOL    HW213991   4.736   2.902   3.444  0.5462 -1.4376  0.5723
 4605SOL     OW13992   5.805   3.730   7.037 -0.3901 -0.5013 -0.2001
 4605SOL    HW113993   5.900   3.746   7.010 -0.0600 -1.4206  0.3537
 4605SOL    HW213994   5.744   3.754   6.962  0.3760 -1.2832 -1.0900
 4606SOL     OW13995   5.124   3.501   2.006 -0.1083 -0.0584 -0.6260
 4606SOL    HW113996   5.155   3.563   2.078 -1.3195 -0.5786  0.3884
 4606SOL    HW213997   5.069   3.427   2.047  0.8034 -1.4816 -1.8619
 4607SOL     OW13998   4.063   0.876   7.251  0.0749 -0.1932  0.3644
 4607SOL    HW113999   4.094   0.863   7.157 -0.8471 -0.1683  0.0483
 4607SOL    HW214000   3.980   0.932   7.252  0.3649  0.2478  1.2349
 4608SOL     OW14001   8.472   2.430   4.088 -0.3200  0.1849  0.4468
 4608SOL    HW114002   8.441   2.337   4.107  0.9378 -0.0087  1.7360
 4608SOL    HW214003   8.398   2.495   4.108 -1.6619 -0.5559 -1.6983
 4609SOL     OW14004   1.839   2.352   7.406 -0.0592  0.0780  0.5109
 4609SOL    HW114005   1.868   2.259   7.386 -1.1043  0.2840 -2.6003
 4609SOL    HW214006   1.739   2.356   7.409 -0.0075  0.9208  1.7970
 4610SOL     OW14007   6.858   6.744   6.944 -0.5626 -0.9412  0.8205
 4610SOL    HW114008   6.905   6.810   6.885  1.1839 -2.5743  0.2825
 4610SOL    HW214009   6.806   6.793   7.014  0.5719  0.9921  0.3846
 4611SOL     OW14010   6.613   0.047   0.770 -0.3607 -0.1713 -0.6448
 4611SOL    HW114011   6.601   0.074   0.865  1.5801 -0.8668 -0.1571
 4611SOL    HW214012   6.573   0.117   0.710 -0.1221  1.1204  0.6408
 4612SOL     OW14013   6.566   5.143   4.364 -0.3367 -0.5143  0.4871
 4612SOL    HW114014   6.491   5.197   4.325  0.5197 -0.4011 -1.1010
 4612SOL    HW214015   6.618   5.102   4.289  1.0179 -0.8177  1.5763
 4613SOL     OW14016   5.566   1.705   3.682 -0.0890 -0.0651 -0.4103
 4613SOL    HW114017   5.656   1.676   3.715 -0.3911  1.7514  2.2907
 4613SOL    HW214018   5.570   1.799   3.650 -1.1372  0.2743  0.3823
 4614SOL     OW14019   5.932   3.779   4.588  0.2418 -0.7358  0.3388
 4614SOL    HW114020   5.914   3.681   4.580 -0.3710 -0.7168  1.3689
 4614SOL    HW214021   5.848   3.827   4.612  0.4227  0.1216 -0.6696
 4615SOL     OW14022   0.758   4.734   3.873  0.4374 -0.3184 -0.4179
 4615SOL    HW114023   0.688   4.714   3.941  0.6090 -0.6457 -0.3384
 4615SOL    HW214024   0.715   4.746   3.783  0.0512  1.4359 -0.0362
 4616SOL     OW14025   0.914   0.659   5.038 -0.0106  0.0336  0.1623
 4616SOL    HW114026   0.995   0.615   5.000  1.0772  2.1060 -0.0507
 4616SOL    HW214027   0.844   0.590   5.056  1.1742 -1.5968 -1.1900
 4617SOL     OW14028   7.336   3.321   1.688 -0.3614 -0.5222  0.5138
 4617SOL    HW114029   7.248   3.357   1.658  0.2961 -0.2028 -1.1204
 4617SOL    HW214030   7.353   3.233   1.643 -0.8678 -1.7753  2.6271
 4618SOL     OW14031   1.765   8.280   8.539  0.4301  0.4054  0.1998
 4618SOL    HW114032   1.844   8.219   8.544  0.1606  0.0105 -0.1741
 4618SOL    HW214033   1.725   8.291   8.630 -0.0093 -0.6557  0.1544
 4619SOL     OW14034   6.771   3.751   7.224 -0.0084 -0.5490  0.2854
 4619SOL    HW114035   6.672   3.748   7.235 -0.1796 -1.0281 -1.1889
 4619SOL    HW214036   6.814   3.704   7.301 -0.8898  0.0804  1.1883
 4620SOL     OW14037   8.716   7.148   4.305  0.9868 -0.1666  0.0868
 4620SOL    HW114038   8.688   7.124   4.212 -0.5509  1.5980  0.0422
 4620SOL    HW214039   8.779   7.225   4.302 -0.4492  1.0683  0.5432
 4621SOL     OW14040   3.500   3.941   6.310 -0.2799  0.4708 -0.3359
 4621SOL    HW114041   3.452   4.017   6.354 -1.0932 -0.5024  0.4974
 4621SOL    HW214042   3.436   3.890   6.252 -0.5764 -1.3543  1.4487
 4622SOL     OW14043   8.679   4.172   7.494  0.0049  0.6796  0.4646
 4622SOL    HW114044   8.695   4.073   7.498  0.4339  0.7230 -0.0838
 4622SOL    HW214045   8.667   4.199   7.399  0.6376  1.2734  0.5510
 4623SOL     OW14046   6.171   5.662   5.518  0.2040  0.1339  0.3219
 4623SOL    HW114047   6.263   5.624   5.511  1.8077  3.7931 -1.3126
 4623SOL    HW214048   6.171   5.738   5.584 -1.1619  1.3122 -0.9515
 4624SOL     OW14049   8.624   1.933   0.858 -0.7710  0.0757  0.0072
 4624SOL    HW114050   8.679   1.857   0.891  0.8557  1.3659  0.4642
 4624SOL    HW214051   8.560   1.962   0.928 -2.4088 -1.6900 -0.6658
 4625SOL     OW14052   6.016   7.644   4.617 -0.5200  0.0589  0.0385
 4625SOL    HW114053   6.087   7.614   4.680 -0.2919 -1.5527 -0.9224
 4625SOL    HW214054   6.051   7.718   4.559 -0.3867  0.8038  1.0509
 4626SOL     OW14055   5.610   1.977   2.430  0.5611 -0.7723 -0.0207
 4626SOL    HW114056   5.702   1.940   2.433 -0.5051 -3.6558 -0.2942
 4626SOL    HW214057   5.549   1.912   2.385 -1.5718  1.1956 -0.1532
 4627SOL     OW14058   0.927   6.662   4.365  0.0530  0.4679 -0.0954
 4627SOL    HW114059   0.907   6.691   4.458  2.6468  0.7298  0.4473
 4627SOL    HW214060   0.990   6.584   4.367 -0.4108  0.0062 -1.6498
 4628SOL     OW14061   5.504   2.596   7.653 -0.0672  0.1293  0.0562
 4628SOL    HW114062   5.544   2.506   7.669  0.5221  0.2780 -0.5276
 4628SOL    HW214063   5.437   2.590   7.578  0.6933  0.3542 -0.6591
 4629SOL     OW14064   2.597   2.866   6.797  0.6427 -0.4374  0.1844
 4629SOL    HW114065   2.577   2.963   6.808  1.4656 -0.4518  2.1860
 4629SOL    HW214066   2.623   2.848   6.702 -0.5881  1.0641 -0.4840
 4630SOL     OW14067   4.141   7.282   5.462  0.0397 -0.2440  0.2347
 4630SOL    HW114068   4.089   7.215   5.515 -0.1283  0.3546  0.8310
 4630SOL    HW214069   4.146   7.368   5.512  1.0721 -0.0970 -0.0917
 4631SOL     OW14070   8.005   4.450   3.104 -0.2425  0.2380 -0.1216
 4631SOL    HW114071   7.905   4.455   3.108 -0.2174  0.4059  0.3254
 4631SOL    HW214072   8.041   4.435   3.196  0.1364  0.0182 -0.3049
 4632SOL     OW14073   0.038   2.647   4.649  0.0206  1.0292  0.1331
 4632SOL    HW114074   0.030   2.681   4.555  2.3247  1.2799 -0.0438
 4632SOL    HW214075   0.051   2.725   4.711  1.5345  0.7504  0.2161
 4633SOL     OW14076   6.391   5.602   0.038 -0.5892 -0.3178  0.2723
 4633SOL    HW114077   6.431   5.653  -0.038  1.3732 -1.9199  0.1402
 4633SOL    HW214078   6.458   5.594   0.112 -1.8820 -0.2187  1.5114
 4634SOL     OW14079   4.124   1.955   6.623 -0.2208  0.3524  0.2021
 4634SOL    HW114080   4.047   1.894   6.603  0.1412  0.2027 -0.7893
 4634SOL    HW214081   4.138   2.018   6.546 -0.4489  1.5647  1.1136
 4635SOL     OW14082   6.292   2.300   0.720  0.2822  0.1945 -0.1864
 4635SOL    HW114083   6.264   2.205   0.733  1.2678  0.0818  1.3131
 4635SOL    HW214084   6.330   2.335   0.805  1.5089  1.4042 -1.2012
 4636SOL     OW14085   6.050   2.282   5.126 -0.5111 -0.1003  0.1546
 4636SOL    HW114086   6.110   2.355   5.160  0.3468 -0.0915 -1.2812
 4636SOL    HW214087   6.007   2.313   5.041 -2.2944 -0.2529  0.9738
 4637SOL     OW14088   7.330   0.244   8.043  0.4875  0.2952  0.1226
 4637SOL    HW114089   7.397   0.282   7.980  0.4890 -1.7762 -1.2104
 4637SOL    HW214090   7.375   0.177   8.103 -0.0783  0.0966  0.3302
 4638SOL     OW14091   2.132   6.446   5.198  0.2159  0.6392  0.3081
 4638SOL    HW114092   2.229   6.468   5.191  1.0879 -1.1672  4.1787
 4638SOL    HW214093   2.119   6.348   5.186 -1.3495  0.9850 -1.1806
 4639SOL     OW14094   4.147   6.826   3.307  0.0723  0.1011  0.1499
 4639SOL    HW114095   4.144   6.765   3.227  0.3925 -1.0680  0.9910
 4639SOL    HW214096   4.166   6.919   3.277  2.4725 -0.6585 -1.0227
 4640SOL     OW14097   3.889   1.152   7.827 -0.1568  0.2089  0.1994
 4640SOL    HW114098   3.901   1.251   7.831  1.8486 -0.0116  0.5260
 4640SOL    HW214099   3.815   1.130   7.764 -0.0663  1.8722 -0.5315
 4641SOL     OW14100   0.117   3.478   4.228 -0.9314  0.3906  0.4881
 4641SOL    HW114101   0.182   3.539   4.183 -0.6429  0.7359  1.3506
 4641SOL    HW214102   0.111   3.392   4.176 -0.9764  0.9534 -0.4601
 4642SOL     OW14103   1.641   2.329   3.716  0.3233 -0.1881  0.6400
 4642SOL    HW114104   1.692   2.405   3.675  0.2456 -0.2052  0.5096
 4642SOL    HW214105   1.621   2.261   3.645  0.3270 -0.2950  0.7402
 4643SOL     OW14106   5.193   8.752   2.238 -0.4115  0.9510  0.3147
 4643SOL    HW114107   5.119   8.818   2.251 -1.3193 -0.0681  0.5223
 4643SOL    HW214108   5.211   8.742   2.140 -1.9663 -0.2379  0.0993
 4644SOL     OW14109   8.459   0.480   3.306  0.2057  0.2904  1.0699
 4644SOL    HW114110   8.396   0.469   3.228  0.4893 -0.1836  0.9062
 4644SOL    HW214111   8.540   0.424   3.291 -0.0358 -0.3297  2.0360
 4645SOL     OW14112   2.168   4.549   0.412 -0.0662 -0.3914  0.2801
 4645SOL    HW114113   2.156   4.606   0.332 -0.2266 -0.0853  0.5208
 4645SOL    HW214114   2.251   4.494   0.402 -0.0848 -0.3530 -0.0905
 4646SOL     OW14115   6.994   3.748   3.917 -0.6794 -0.0366  0.4967
 4646SOL    HW114116   6.926   3.813   3.949 -1.9226 -1.2672  0.4720
 4646SOL    HW214117   6.977   3.659   3.960  0.1598 -0.6812 -0.4685
 4647SOL     OW14118   3.594   2.121   5.569  0.2747  0.4688 -0.4168
 4647SOL    HW114119   3.661   2.079   5.509  0.9362 -2.2755  2.0193
 4647SOL    HW214120   3.637   2.145   5.656 -1.4472  0.6594  0.4379
 4648SOL     OW14121   8.852   7.863   6.757  0.2635  0.3229 -0.4439
 4648SOL    HW114122   8.908   7.879   6.676  1.4894 -3.5864 -0.5549
 4648SOL    HW214123   8.912   7.847   6.836 -0.8309  0.3476  0.4229
 4649SOL     OW14124   2.955   1.462   0.002  0.7574 -0.2126 -0.3910
 4649SOL    HW114125   2.968   1.508  -0.086 -1.0816  0.3042 -0.4420
 4649SOL    HW214126   2.948   1.531   0.074 -1.2007 -0.3986 -0.3513
 4650SOL     OW14127   2.326   8.186   7.266 -0.7631  0.2673 -0.2569
 4650SOL    HW114128   2.277   8.099   7.266 -2.0939  0.9568  1.1916
 4650SOL    HW214129   2.420   8.171   7.237 -0.7906 -1.7680  0.5100
 4651SOL     OW14130   4.397   6.372   4.078  0.2600 -0.0293 -0.1175
 4651SOL    HW114131   4.364   6.430   4.003 -0.2803 -0.4170 -0.1841
 4651SOL    HW214132   4.497   6.368   4.075  0.2750  0.4956 -0.4137
 4652SOL     OW14133   7.584   4.854   4.601 -0.1603  0.1246 -0.2357
 4652SOL    HW114134   7.547   4.781   4.659  0.0975 -0.2140 -0.4911
 4652SOL    HW214135   7.512   4.921   4.581 -1.2381 -1.5169 -2.3180
 4653SOL     OW14136   8.677   2.010   1.718  0.1261 -0.1177 -0.0398
 4653SOL    HW114137   8.735   2.091   1.711 -0.1925  0.1375  0.1970
 4653SOL    HW214138   8.731   1.932   1.749  0.7494 -0.3554 -1.6739
 4654SOL     OW14139   2.254   3.470   4.068  0.2517 -0.2961  0.9033
 4654SOL    HW114140   2.262   3.371   4.084 -0.7277 -0.8234 -1.4507
 4654SOL    HW214141   2.345   3.510   4.059  0.6778 -0.8369  2.4474
 4655SOL     OW14142   2.931   1.102   0.236  0.4847  0.1761  0.1143
 4655SOL    HW114143   2.962   1.197   0.248 -0.7935  0.3706  2.3519
 4655SOL    HW214144   2.866   1.079   0.308  2.3721 -3.0929  0.9893
 4656SOL     OW14145   2.871   7.529   1.327 -0.5568  0.8527  0.5267
 4656SOL    HW114146   2.815   7.591   1.383  0.8832  0.5165  2.4531
 4656SOL    HW214147   2.896   7.449   1.381  0.3910  0.2034 -0.8304
 4657SOL     OW14148   4.237   6.404   1.614  0.4580 -0.1164  0.0339
 4657SOL    HW114149   4.147   6.441   1.587 -0.7201 -1.2749  2.1363
 4657SOL    HW214150   4.239   6.306   1.596  0.1772 -0.6516  2.5543
 4658SOL     OW14151   4.229   6.076   3.500 -0.3614 -0.0726 -0.2665
 4658SOL    HW114152   4.305   6.033   3.549 -1.0388  0.8860  1.7423
 4658SOL    HW214153   4.246   6.072   3.402  0.8928 -2.4453 -0.0362
 4659SOL     OW14154   8.857   8.706   5.367 -0.5338 -0.3391  0.0642
 4659SOL    HW114155   8.936   8.712   5.428 -0.2447 -0.1670 -0.3233
 4659SOL    HW214156   8.845   8.792   5.319 -1.0246 -0.3306  0.1986
 4660SOL     OW14157   4.709   2.178   4.060  0.0068  0.1222 -0.3291
 4660SOL    HW114158   4.795   2.128   4.053 -1.2318 -1.9770 -1.4340
 4660SOL    HW214159   4.715   2.244   4.135  1.0706 -3.1665  2.7936
 4661SOL     OW14160   6.044   0.071   1.652 -0.1002  0.2265 -0.1593
 4661SOL    HW114161   5.983   0.057   1.574  0.3854  0.5398 -0.6041
 4661SOL    HW214162   6.118   0.133   1.625  0.9816 -0.9335  0.0463
 4662SOL     OW14163   2.804   0.178   2.172 -0.1456 -0.8843 -0.1903
 4662SOL    HW114164   2.712   0.173   2.209 -0.0589 -0.9258  0.0227
 4662SOL    HW214165   2.823   0.272   2.142 -0.4715 -1.0091 -0.8020
 4663SOL     OW14166   6.907   8.738   7.705 -0.3457 -0.7253  0.0844
 4663SOL    HW114167   6.892   8.709   7.800 -0.3870  0.9341  0.6284
 4663SOL    HW214168   6.975   8.679   7.662  1.6549  0.0573  2.0073
 4664SOL     OW14169   3.524   8.779   6.030 -0.1642  0.0285 -0.7111
 4664SOL    HW114170   3.620   8.750   6.026 -0.2853 -0.2896 -1.7603
 4664SOL    HW214171   3.472   8.727   5.963 -1.4936 -1.2650  1.2321
 4665SOL     OW14172   4.140   7.513   6.333 -0.3232 -0.2830 -0.2668
 4665SOL    HW114173   4.137   7.414   6.319 -1.8599 -0.0887 -1.5122
 4665SOL    HW214174   4.047   7.549   6.338  0.2108  1.2316 -0.7323
 4666SOL     OW14175   0.568   8.051   4.070 -0.1985 -0.0650 -0.4155
 4666SOL    HW114176   0.534   8.141   4.096 -1.7285 -0.8939  0.6820
 4666SOL    HW214177   0.652   8.060   4.018 -0.2641  1.9782 -0.2380
 4667SOL     OW14178   7.003   7.597   8.581  0.2924  0.2164  0.3257
 4667SOL    HW114179   7.086   7.630   8.626 -0.4503 -0.3207  2.1578
 4667SOL    HW214180   7.002   7.497   8.583  0.0824  0.1886 -0.6446
 4668SOL     OW14181   8.634   5.489   0.322  0.2875  0.0196 -0.0253
 4668SOL    HW114182   8.564   5.558   0.303 -1.0477 -0.7566  1.8399
 4668SOL    HW214183   8.686   5.516   0.403 -0.5488 -1.3221  1.0000
 4669SOL     OW14184   1.854   4.948   0.533  0.2685  0.2108  0.0700
 4669SOL    HW114185   1.804   4.863   0.519  0.4416  0.2436 -0.8553
 4669SOL    HW214186   1.915   4.939   0.612  1.5052 -1.1202 -0.9741
 4670SOL     OW14187   6.828   0.124   1.718  0.4388  0.2992  0.4072
 4670SOL    HW114188   6.736   0.090   1.698  1.2759 -1.3432 -0.8891
 4670SOL    HW214189   6.842   0.125   1.817 -0.3237 -1.2555  0.5545
 4671SOL     OW14190   5.021   2.475   4.026 -0.1945  0.3598  0.2694
 4671SOL    HW114191   5.113   2.439   4.037 -0.6607 -0.7033  0.8561
 4671SOL    HW214192   5.016   2.530   3.942  1.1295  0.9929  0.5855
 4672SOL     OW14193   7.671   0.428   8.593 -0.0561  0.3342 -0.4498
 4672SOL    HW114194   7.574   0.441   8.612 -0.1159  1.7458 -1.5238
 4672SOL    HW214195   7.681   0.368   8.513  0.0523 -1.3659  0.7771
 4673SOL     OW14196   1.506   6.585   0.270  0.2426 -0.6085  0.3215
 4673SOL    HW114197   1.569   6.509   0.259  1.5893  0.7020 -1.7507
 4673SOL    HW214198   1.460   6.604   0.183 -0.9595  0.2104  1.0932
 4674SOL     OW14199   4.439   3.147   4.068 -0.1401 -0.3401 -0.1561
 4674SOL    HW114200   4.416   3.238   4.035 -0.3358  0.1765  1.3266
 4674SOL    HW214201   4.356   3.091   4.072 -0.3321 -0.0065  0.6281
 4675SOL     OW14202   1.408   2.511   1.709 -0.1017 -0.5001  0.6934
 4675SOL    HW114203   1.478   2.572   1.671 -1.2541  1.6583  1.8251
 4675SOL    HW214204   1.380   2.445   1.639  0.3088  1.0921 -1.0745
 4676SOL     OW14205   0.808   3.591   6.435 -0.5547 -0.2580 -0.5956
 4676SOL    HW114206   0.895   3.639   6.437 -1.2747  1.0724  1.1630
 4676SOL    HW214207   0.757   3.617   6.353 -0.1694  0.5709 -0.5777
 4677SOL     OW14208   2.683   7.328   6.743 -0.1826 -0.1608 -0.3540
 4677SOL    HW114209   2.775   7.294   6.766  0.9777  2.7397 -0.2242
 4677SOL    HW214210   2.667   7.316   6.645  0.6160 -0.1154 -0.4972
 4678SOL     OW14211   2.996   5.025   6.308  0.3728  0.4694 -1.4017
 4678SOL    HW114212   2.954   4.935   6.305 -0.0197  0.6655 -1.8437
 4678SOL    HW214213   2.927   5.095   6.290  0.1831  1.0249  1.0153
 4679SOL     OW14214   8.687   3.029   3.196  0.0762  0.2993  0.0984
 4679SOL    HW114215   8.669   2.932   3.179  1.7238  0.4543 -3.5864
 4679SOL    HW214216   8.763   3.059   3.139 -1.8541  4.2895 -0.7534
 4680SOL     OW14217   1.166   7.043   1.385  0.1954 -0.0689  0.0367
 4680SOL    HW114218   1.197   7.012   1.295 -1.3729  1.6934 -1.1938
 4680SOL    HW214219   1.226   7.005   1.455  1.7325 -1.1774 -1.7539
 4681SOL     OW14220   0.566   8.468   0.280 -0.0834 -0.2557  0.3838
 4681SOL    HW114221   0.581   8.502   0.187 -0.0559  0.0217  0.4882
 4681SOL    HW214222   0.597   8.373   0.286 -0.4539 -0.4015  0.0083
 4682SOL     OW14223   2.537   1.633   0.156 -0.5117  0.4528  0.0538
 4682SOL    HW114224   2.631   1.619   0.188  0.0706  1.3604 -1.1511
 4682SOL    HW214225   2.488   1.692   0.220  0.1425  0.9856  0.0791
 4683SOL     OW14226   3.748   5.210   5.754  0.2250  0.8369  0.2651
 4683SOL    HW114227   3.847   5.196   5.746  0.2927  2.2113 -1.8749
 4683SOL    HW214228   3.703   5.121   5.761  1.5062  0.1397  0.0109
 4684SOL     OW14229   4.295   7.022   4.774  0.3346 -0.2504 -0.3877
 4684SOL    HW114230   4.205   7.012   4.817  0.5029  3.8785  1.4004
 4684SOL    HW214231   4.361   6.963   4.821 -0.7129 -0.4958  0.8483
 4685SOL     OW14232   5.959   2.100   0.592 -0.0223  0.8142  0.3073
 4685SOL    HW114233   5.902   2.174   0.557 -0.7109 -0.2618 -0.9340
 4685SOL    HW214234   5.907   2.046   0.658 -0.4625 -0.1185 -0.7643
 4686SOL     OW14235   1.751   6.460   2.318 -0.3844 -0.0021 -0.4495
 4686SOL    HW114236   1.760   6.363   2.344 -0.0156  0.2707  0.4776
 4686SOL    HW214237   1.796   6.517   2.386 -3.0973  1.0288  0.6197
 4687SOL     OW14238   4.305   8.434   2.948  0.5993  0.4326  0.1658
 4687SOL    HW114239   4.290   8.339   2.978 -0.1223  0.4558 -0.1116
 4687SOL    HW214240   4.282   8.496   3.022 -1.0571  0.4824 -0.3558
 4688SOL     OW14241   8.358   6.305   5.423 -0.1852 -0.5592 -0.7703
 4688SOL    HW114242   8.337   6.401   5.439 -0.2933 -0.9295  1.7126
 4688SOL    HW214243   8.415   6.296   5.341 -0.6405  1.5340 -1.3694
 4689SOL     OW14244   2.580   0.994   6.052  0.5162  0.2335  0.4766
 4689SOL    HW114245   2.658   1.038   6.008  0.0378 -0.9147 -1.6953
 4689SOL    HW214246   2.604   0.900   6.077 -0.7729 -1.1009 -2.6737
 4690SOL     OW14247   4.821   4.448   0.925  0.7483 -0.2668  0.1906
 4690SOL    HW114248   4.853   4.531   0.880 -0.7167  0.6080  0.7094
 4690SOL    HW214249   4.881   4.428   1.004 -0.3777  1.8366  1.6831
 4691SOL     OW14250   5.205   4.640   1.080  0.6236 -0.4493 -0.7645
 4691SOL    HW114251   5.217   4.670   1.175 -0.9147 -2.0865  0.0292
 4691SOL    HW214252   5.193   4.719   1.021 -0.5260  0.5940  0.7595
 4692SOL     OW14253   8.465   1.877   3.340 -0.3346  0.0039 -0.3118
 4692SOL    HW114254   8.502   1.802   3.395 -0.4282  0.7251  0.7629
 4692SOL    HW214255   8.541   1.933   3.306 -0.2983 -0.1819 -0.5372
 4693SOL     OW14256   3.387   0.482   8.454 -0.2980  0.0027  0.2440
 4693SOL    HW114257   3.479   0.458   8.423 -0.4242  1.2560 -1.2615
 4693SOL    HW214258   3.389   0.502   8.552  1.4329  1.6670 -0.0726
 4694SOL     OW14259   2.675   6.439   1.138  0.3038 -0.4404 -0.0746
 4694SOL    HW114260   2.668   6.379   1.218  2.7604 -0.2038  0.3999
 4694SOL    HW214261   2.657   6.386   1.055 -0.9443 -1.0019  0.5216
 4695SOL     OW14262   8.229   1.573   1.148  0.1642  0.3744 -0.5947
 4695SOL    HW114263   8.223   1.519   1.064  2.8475 -1.5473  0.3243
 4695SOL    HW214264   8.290   1.651   1.133  1.5778 -0.6192 -0.1790
 4696SOL     OW14265   6.891   4.647   6.046 -0.3598 -0.1612 -0.3121
 4696SOL    HW114266   6.923   4.703   6.122  2.7803  1.3242 -2.4768
 4696SOL    HW214267   6.914   4.551   6.063  0.5942  0.1903  0.5164
 4697SOL     OW14268   5.358   2.648   1.437  0.1427  0.4799  0.6948
 4697SOL    HW114269   5.276   2.699   1.465  0.2566  0.7930  0.4559
 4697SOL    HW214270   5.398   2.690   1.356  0.3469  0.1213  0.6054
 4698SOL     OW14271   3.819   4.004   0.243  0.6026  0.2130  0.0408
 4698SOL    HW114272   3.723   4.025   0.228  0.2233 -1.3277  0.0915
 4698SOL    HW214273   3.852   4.053   0.324 -0.5756 -0.3999  0.9236
 4699SOL     OW14274   1.249   6.803   4.501 -0.1281 -0.3859 -0.3109
 4699SOL    HW114275   1.215   6.894   4.526  1.9806  0.0756  1.2243
 4699SOL    HW214276   1.221   6.737   4.571  0.9621 -0.2464  0.2861
 4700SOL     OW14277   7.599   0.049   8.614  0.2456 -0.3375  0.1198
 4700SOL    HW114278   7.546   0.116   8.666 -1.3443  0.4172 -2.2806
 4700SOL    HW214279   7.543  -0.032   8.595 -0.6409  0.8895 -3.3237
 4701SOL     OW14280   5.808   2.709   3.931  0.2211  0.1495  0.0067
 4701SOL    HW114281   5.853   2.749   3.851 -1.1966  0.2954 -0.7617
 4701SOL    HW214282   5.762   2.625   3.904 -1.2384  0.7964  0.3801
 4702SOL     OW14283   4.643   5.159   7.769  0.1867 -0.0028 -0.0014
 4702SOL    HW114284   4.708   5.094   7.810  2.7310  0.9987 -2.1626
 4702SOL    HW214285   4.673   5.182   7.676 -3.2244  0.7174 -1.0879
 4703SOL     OW14286   8.764   8.761   3.475 -0.0055 -0.5388  0.4928
 4703SOL    HW114287   8.824   8.833   3.440 -0.0113 -0.7715 -0.0135
 4703SOL    HW214288   8.708   8.797   3.549 -0.2445  0.0693  0.0236
 4704SOL     OW14289   7.251   2.939   7.163 -0.4964  0.5500 -0.6432
 4704SOL    HW114290   7.298   2.931   7.075 -0.9621  0.3336 -0.8736
 4704SOL    HW214291   7.155   2.961   7.147 -1.0493 -1.4264 -0.2672
 4705SOL     OW14292   6.854   3.250   3.948  0.3396  0.2174  0.7227
 4705SOL    HW114293   6.851   3.235   3.850 -0.9134 -1.2921  0.9521
 4705SOL    HW214294   6.924   3.191   3.990  1.4736  1.4812  0.6676
 4706SOL     OW14295   7.392   2.545   1.924 -0.4054 -0.5267 -0.2441
 4706SOL    HW114296   7.478   2.573   1.881 -0.0668 -2.8277 -1.1894
 4706SOL    HW214297   7.317   2.555   1.859 -0.7136  0.5259  0.2518
 4707SOL     OW14298   5.845   3.146   2.035 -0.3159  0.2183 -0.6608
 4707SOL    HW114299   5.943   3.155   2.018 -0.1821  2.1474  0.8381
 4707SOL    HW214300   5.830   3.078   2.107 -0.1163 -0.2499 -1.0542
 4708SOL     OW14301   1.456   6.792   5.933  0.3506 -0.0771  0.5635
 4708SOL    HW114302   1.519   6.850   5.984  0.8728  2.0561 -2.2331
 4708SOL    HW214303   1.369   6.787   5.981  0.8323  1.6909  1.7365
 4709SOL     OW14304   7.766   1.076   7.088  0.0670 -0.7696 -0.3838
 4709SOL    HW114305   7.699   1.083   7.015  1.8353 -1.8265 -2.1996
 4709SOL    HW214306   7.824   0.996   7.072  0.6631 -0.9090  2.0785
 4710SOL     OW14307   8.773   5.920   6.944 -0.0111 -0.1987 -0.1775
 4710SOL    HW114308   8.865   5.946   6.913  0.9826  0.5229  3.0203
 4710SOL    HW214309   8.721   6.002   6.967  0.0804 -0.6897  1.9473
 4711SOL     OW14310   3.702   8.251   5.731  0.7430 -0.3067  0.7229
 4711SOL    HW114311   3.797   8.239   5.761  2.0376  1.4118 -2.2050
 4711SOL    HW214312   3.687   8.347   5.708 -0.7850 -1.0053 -1.5439
 4712SOL     OW14313   4.249   2.056   5.875 -0.2263 -0.5306 -0.4563
 4712SOL    HW114314   4.333   2.032   5.825 -0.6444 -0.7760 -1.0587
 4712SOL    HW214315   4.192   2.113   5.817 -0.7736 -0.9112 -0.2986
 4713SOL     OW14316   5.368   4.300   1.283 -0.3763 -0.0558  0.4979
 4713SOL    HW114317   5.461   4.290   1.317 -0.0463  0.6556 -0.1802
 4713SOL    HW214318   5.304   4.257   1.348  0.5712 -2.6172 -0.1489
 4714SOL     OW14319   0.988   4.297   3.488  0.0224 -0.2676 -0.2265
 4714SOL    HW114320   0.911   4.341   3.533  1.4116  0.1914  1.8496
 4714SOL    HW214321   0.955   4.240   3.412 -2.1577  1.1469 -0.4188
 4715SOL     OW14322   0.173   3.109   0.958 -0.0022  0.1883  0.5442
 4715SOL    HW114323   0.169   3.097   1.057  0.7975 -0.7282  0.4863
 4715SOL    HW214324   0.128   3.194   0.933  1.8429  1.6655  1.9395
 4716SOL     OW14325   7.382   4.835   8.069 -0.0501 -0.2011  0.1313
 4716SOL    HW114326   7.363   4.737   8.068  2.5167 -0.7922  0.7540
 4716SOL    HW214327   7.440   4.857   8.148 -0.4612  1.8239 -0.0604
 4717SOL     OW14328   2.565   7.595   8.080 -0.0209 -0.1991 -0.1041
 4717SOL    HW114329   2.475   7.619   8.116  0.1802  0.3563  0.0321
 4717SOL    HW214330   2.553   7.542   7.995 -0.4741 -0.3971  0.0765
 4718SOL     OW14331   2.994   4.204   6.093  0.2990  0.3784  0.0307
 4718SOL    HW114332   3.084   4.163   6.078 -0.6888 -1.4553 -1.2119
 4718SOL    HW214333   2.933   4.136   6.134 -0.2975  1.8723  1.7284
 4719SOL     OW14334   0.041   3.372   5.982 -0.0304  0.5472 -0.0031
 4719SOL    HW114335   0.063   3.346   6.076 -0.0683 -0.3369 -0.2308
 4719SOL    HW214336   0.124   3.371   5.926 -0.2517 -0.4690 -0.3282
 4720SOL     OW14337   0.288   6.196   0.608 -0.0294  0.0947 -0.1359
 4720SOL    HW114338   0.209   6.255   0.625  0.9950  1.8376 -1.1028
 4720SOL    HW214339   0.275   6.108   0.654 -2.4160  0.4045 -0.0924
 4721SOL     OW14340   6.079   6.942   1.149 -0.0471  0.1190  0.0082
 4721SOL    HW114341   6.043   6.992   1.228  2.3568  2.2023 -0.0749
 4721SOL    HW214342   6.060   6.993   1.066 -1.0927 -1.2298 -0.6149
 4722SOL     OW14343   7.978   6.935   5.578  0.4326 -0.1439  0.0319
 4722SOL    HW114344   7.950   6.840   5.570  0.2184 -0.0907  0.1533
 4722SOL    HW214345   7.914   6.985   5.636  0.6548  0.0276  0.1347
 4723SOL     OW14346   7.417   2.921   5.655  0.1391 -0.2163  0.0872
 4723SOL    HW114347   7.446   2.828   5.632  1.9273  0.5479 -0.9894
 4723SOL    HW214348   7.470   2.954   5.733 -0.7392 -0.2132  0.6898
 4724SOL     OW14349   4.890   3.486   5.103  0.1497  0.1080  0.4255
 4724SOL    HW114350   4.802   3.527   5.125  0.4572  1.2798 -0.3693
 4724SOL    HW214351   4.951   3.492   5.182 -1.0276 -2.4037  1.6099
 4725SOL     OW14352   7.399   2.035   1.295 -0.4201  0.4844 -0.3025
 4725SOL    HW114353   7.371   2.038   1.200 -0.6368  1.4980 -0.2126
 4725SOL    HW214354   7.462   1.958   1.309 -2.3639 -1.2682 -0.7024
 4726SOL     OW14355   2.830   1.408   0.367  0.6087  0.0141  0.4238
 4726SOL    HW114356   2.791   1.366   0.285  1.3464  1.2802 -0.6310
 4726SOL    HW214357   2.806   1.505   0.369  0.9064  0.0745  1.5278
 4727SOL     OW14358   7.794   5.261   2.061  0.6363 -0.3772 -0.3169
 4727SOL    HW114359   7.785   5.167   2.026  1.4819 -0.2001 -1.0319
 4727SOL    HW214360   7.722   5.278   2.128  0.7578 -1.6937  0.1774
 4728SOL     OW14361   2.288   2.527   3.856  0.0603 -0.0211 -0.1449
 4728SOL    HW114362   2.315   2.576   3.773 -2.4537  0.2121 -0.9254
 4728SOL    HW214363   2.319   2.432   3.850  2.9565  0.8147  0.3240
 4729SOL     OW14364   5.803   2.703   4.798 -0.5100 -0.4628 -0.0668
 4729SOL    HW114365   5.877   2.735   4.739 -0.1905  0.8462  1.0112
 4729SOL    HW214366   5.729   2.667   4.741  0.3231 -0.4289 -1.2131
 4730SOL     OW14367   5.663   4.691   7.283  0.3690 -0.0698  0.4235
 4730SOL    HW114368   5.577   4.678   7.233 -0.7356 -0.4048  2.3160
 4730SOL    HW214369   5.707   4.602   7.296  0.1028 -0.1169  0.9911
 4731SOL     OW14370   8.348   6.260   2.865 -0.3477 -0.0902  0.2512
 4731SOL    HW114371   8.312   6.169   2.846  0.1490 -0.5915  1.6494
 4731SOL    HW214372   8.350   6.276   2.964  0.7383  0.9649  0.0825
 4732SOL     OW14373   5.716   8.604   4.640  0.0919 -0.6340 -0.0771
 4732SOL    HW114374   5.741   8.535   4.573 -2.2690 -0.3171 -1.4174
 4732SOL    HW214375   5.717   8.564   4.732  1.2383 -1.6986 -0.5255
 4733SOL     OW14376   1.646   4.698   8.043 -0.1311  0.2145  0.0161
 4733SOL    HW114377   1.589   4.774   8.074  0.2885  0.7694 -0.5531
 4733SOL    HW214378   1.732   4.734   8.006  0.0273 -0.5316 -0.3547
 4734SOL     OW14379   7.554   3.484   4.254  0.3811  0.1650  0.5940
 4734SOL    HW114380   7.555   3.425   4.173  2.3360  1.6101 -0.5022
 4734SOL    HW214381   7.573   3.429   4.335 -2.4349 -1.4608  0.2758
 4735SOL     OW14382   7.376   8.829   7.241  0.0881 -0.0974 -0.2240
 4735SOL    HW114383   7.364   8.757   7.172 -0.7205 -1.2083  1.0293
 4735SOL    HW214384   7.287   8.860   7.273  0.3347 -2.0530  2.7548
 4736SOL     OW14385   3.851   6.263   6.592  0.1855  0.4802 -0.2404
 4736SOL    HW114386   3.816   6.348   6.555 -2.1406 -0.6335 -0.7908
 4736SOL    HW214387   3.888   6.279   6.684 -1.1346  1.9125  0.0866
 4737SOL     OW14388   7.870   3.173   2.889 -0.1415 -1.0342 -0.0451
 4737SOL    HW114389   7.890   3.230   2.808  0.5882 -0.9981  0.1536
 4737SOL    HW214390   7.956   3.140   2.928 -0.5135 -1.3822  0.4849
 4738SOL     OW14391   3.406   5.368   3.547 -0.2855  0.5674  0.5959
 4738SOL    HW114392   3.309   5.386   3.564 -0.2416  0.2792  1.1684
 4738SOL    HW214393   3.458   5.391   3.629 -0.1841 -1.8675  1.2710
 4739SOL     OW14394   3.474   7.059   2.617  0.2400  0.7367 -0.0403
 4739SOL    HW114395   3.469   7.042   2.519  2.6021  0.7250 -0.2127
 4739SOL    HW214396   3.436   7.149   2.638 -1.3204  0.2825 -0.7759
 4740SOL     OW14397   4.746   2.089   4.413  0.3068  0.3302 -0.6770
 4740SOL    HW114398   4.803   2.157   4.367 -0.0718  0.1078 -1.5003
 4740SOL    HW214399   4.780   2.074   4.506 -0.5093  2.7908  0.1120
 4741SOL     OW14400   2.948   2.216   1.362 -0.6500  0.5771 -0.3714
 4741SOL    HW114401   2.976   2.146   1.296  1.5271  0.3226  0.7304
 4741SOL    HW214402   2.951   2.178   1.454 -0.8157  1.7285  0.1183
 4742SOL     OW14403   7.072   2.942   0.144 -0.0993  0.2794 -0.5970
 4742SOL    HW114404   6.996   2.888   0.108 -0.2041  0.5628 -0.8056
 4742SOL    HW214405   7.157   2.889   0.137 -0.1269  0.3133 -1.2215
 4743SOL     OW14406   8.513   3.155   3.457 -0.0050  0.0690  0.2752
 4743SOL    HW114407   8.435   3.104   3.492 -0.2173  0.1138 -0.1368
 4743SOL    HW214408   8.544   3.115   3.371 -0.3381  0.7925 -0.1869
 4744SOL     OW14409   4.372   8.393   0.511  0.8540 -0.1326  0.3292
 4744SOL    HW114410   4.302   8.461   0.531  0.1606 -0.6496 -0.2882
 4744SOL    HW214411   4.382   8.332   0.590  0.7758  0.0769  0.5033
 4745SOL     OW14412   5.830   8.042   3.091  0.2787 -0.1323 -0.0238
 4745SOL    HW114413   5.913   8.084   3.126 -0.6232  0.7838  1.1122
 4745SOL    HW214414   5.785   8.103   3.026 -0.2272  0.0035  0.4433
 4746SOL     OW14415   1.951   2.909   7.153 -0.4245 -0.8047 -0.0792
 4746SOL    HW114416   1.928   2.819   7.117 -0.1343 -1.2654  0.8669
 4746SOL    HW214417   1.871   2.947   7.201  0.2814 -1.8124  2.0067
 4747SOL     OW14418   8.718   0.180   4.941  0.3923  0.3706 -0.2077
 4747SOL    HW114419   8.772   0.221   4.867  0.8351 -1.2594 -0.8377
 4747SOL    HW214420   8.670   0.099   4.906  1.8565 -1.3944  1.6257
 4748SOL     OW14421   1.743   8.584   4.165  0.2990  0.2826 -0.7528
 4748SOL    HW114422   1.726   8.611   4.070  0.8772  0.2636 -0.8617
 4748SOL    HW214423   1.777   8.663   4.216 -1.5095  0.7285 -0.1580
 4749SOL     OW14424   8.010   2.873   5.883  0.1264  0.6146 -0.0061
 4749SOL    HW114425   7.947   2.951   5.880  0.9187  1.2593 -0.2740
 4749SOL    HW214426   8.012   2.835   5.975 -0.0967  1.0588  0.1851
 4750SOL     OW14427   7.541   5.141   3.152  0.0925 -0.1974  0.0044
 4750SOL    HW114428   7.467   5.075   3.157  1.0672 -1.2652  1.1197
 4750SOL    HW214429   7.581   5.153   3.243  1.5966 -0.0172 -0.6445
 4751SOL     OW14430   4.287   4.468   7.086 -0.2250  0.5095  0.3253
 4751SOL    HW114431   4.349   4.473   7.165  1.3770  0.9837 -0.9174
 4751SOL    HW214432   4.201   4.514   7.109 -0.4929 -0.8788  2.3646
 4752SOL     OW14433   4.788   1.450   5.727  0.2036  0.0944  0.1006
 4752SOL    HW114434   4.882   1.481   5.713  0.2218  1.0852  2.0635
 4752SOL    HW214435   4.732   1.527   5.760 -1.4123 -0.3772 -1.3408
 4753SOL     OW14436   4.112   0.227   6.570 -0.3034  0.8384 -0.5374
 4753SOL    HW114437   4.111   0.228   6.669  1.9588  0.1044 -0.4570
 4753SOL    HW214438   4.177   0.295   6.536 -0.4702  0.5398 -1.4885
 4754SOL     OW14439   4.208   8.117   1.067 -0.1101 -0.0347  0.1388
 4754SOL    HW114440   4.252   8.194   1.114  1.0194 -0.0639 -0.8350
 4754SOL    HW214441   4.277   8.050   1.040 -0.6610  0.1178 -1.8132
 4755SOL     OW14442   0.415   0.002   6.357  1.0282 -0.7396 -0.3359
 4755SOL    HW114443   0.505   0.045   6.355  0.1305  1.2574 -1.4294
 4755SOL    HW214444   0.372   0.019   6.446  0.2485  1.7818 -1.1068
 4756SOL     OW14445   8.628   4.779   1.530 -0.2145 -0.1009 -0.0128
 4756SOL    HW114446   8.721   4.755   1.502 -0.6607 -0.6012 -1.1544
 4756SOL    HW214447   8.598   4.716   1.601 -0.3429 -1.1666 -0.9767
 4757SOL     OW14448   4.023   0.611   6.180 -0.3399  0.7000  0.5926
 4757SOL    HW114449   3.973   0.525   6.179 -3.3346  2.3230 -0.5237
 4757SOL    HW214450   3.962   0.685   6.208  1.7241  2.7140  0.0536
 4758SOL     OW14451   2.557   4.404   7.593  0.1710 -0.0072  0.1516
 4758SOL    HW114452   2.609   4.399   7.678 -1.1548  1.4159  1.1186
 4758SOL    HW214453   2.510   4.493   7.588  0.2240 -0.0338 -2.0948
 4759SOL     OW14454   4.183   7.241   0.271 -0.4347 -0.1556  0.0245
 4759SOL    HW114455   4.267   7.277   0.231  1.2315 -0.9547  2.6305
 4759SOL    HW214456   4.118   7.316   0.284  0.0287  0.5605 -1.5106
 4760SOL     OW14457   5.115   0.120   7.900 -0.6354  0.0959  0.1271
 4760SOL    HW114458   5.118   0.220   7.894  0.0519  0.0060 -2.0176
 4760SOL    HW214459   5.019   0.089   7.897 -0.8856  0.6757  1.4373
 4761SOL     OW14460   3.175   5.521   6.976 -0.0118  0.3049  0.5605
 4761SOL    HW114461   3.208   5.436   6.935  0.3680  0.3291  0.8133
 4761SOL    HW214462   3.243   5.593   6.964 -0.2176  0.5073  0.5859
 4762SOL     OW14463   5.685   0.524   8.376  0.0751  0.5885 -0.5630
 4762SOL    HW114464   5.588   0.504   8.363 -0.0262  0.7029  0.0046
 4762SOL    HW214465   5.696   0.618   8.407  0.4665  1.0326 -1.9884
 4763SOL     OW14466   8.338   4.077   3.961  0.4733 -0.1473 -0.3688
 4763SOL    HW114467   8.311   4.101   3.868  1.6621 -1.5908 -1.1402
 4763SOL    HW214468   8.438   4.077   3.967  0.4330  2.2371  1.5939
 4764SOL     OW14469   8.051   4.343   2.856  0.0749  0.1751 -0.1089
 4764SOL    HW114470   8.039   4.390   2.943  0.9292  1.2135 -0.5252
 4764SOL    HW214471   7.992   4.385   2.787  0.4032  0.2605 -0.3430
 4765SOL     OW14472   8.761   5.142   5.613  0.1297  0.1879  0.3522
 4765SOL    HW114473   8.737   5.198   5.693 -2.7501 -1.3296  0.6516
 4765SOL    HW214474   8.767   5.201   5.532 -2.1138  1.1010  0.7751
 4766SOL     OW14475   3.058   1.917   2.730 -0.1603 -0.0973  0.1023
 4766SOL    HW114476   2.976   1.973   2.722  0.2048  0.3353 -0.7782
 4766SOL    HW214477   3.034   1.828   2.770 -0.6364  0.8720  2.0562
 4767SOL     OW14478   2.753   0.501   8.788 -0.3265  0.0066  0.2716
 4767SOL    HW114479   2.807   0.538   8.712  1.0173 -0.5900  0.8935
 4767SOL    HW214480   2.787   0.410   8.811 -0.8971  0.0694  1.3987
 4768SOL     OW14481   7.531   8.654   2.121  0.2445  0.3081  0.5269
 4768SOL    HW114482   7.489   8.681   2.207  1.8015  1.5236  0.9539
 4768SOL    HW214483   7.628   8.679   2.122  0.2716  0.4789 -1.6316
 4769SOL     OW14484   4.361   6.248   5.921  0.0785 -0.0786  0.1327
 4769SOL    HW114485   4.357   6.150   5.938  1.5009  0.0009  1.0275
 4769SOL    HW214486   4.280   6.276   5.869 -0.6611 -1.6008  0.4204
 4770SOL     OW14487   7.960   4.780   4.509 -0.0290 -0.0203  0.1799
 4770SOL    HW114488   7.960   4.717   4.587 -0.2453 -0.0073  0.1917
 4770SOL    HW214489   7.866   4.792   4.477 -0.0367  0.5773  0.4074
 4771SOL     OW14490   7.300   6.984   0.138 -0.1347  0.7763  0.3430
 4771SOL    HW114491   7.384   6.957   0.089  0.8301  1.5287  1.5323
 4771SOL    HW214492   7.292   7.084   0.137  0.1079  0.8282  2.0347
 4772SOL     OW14493   2.369   7.095   7.879  0.5723  0.1540 -0.0050
 4772SOL    HW114494   2.285   7.066   7.926  1.7119 -0.7421  1.5372
 4772SOL    HW214495   2.403   7.020   7.822  1.2580 -0.1020  0.7294
 4773SOL     OW14496   6.868   0.164   6.496 -0.6069  0.5658  0.2317
 4773SOL    HW114497   6.785   0.113   6.518 -2.1421  2.6970 -0.3264
 4773SOL    HW214498   6.844   0.248   6.447  1.9855  0.7082 -0.9669
 4774SOL     OW14499   8.191   6.234   6.295  0.3705  0.3319  0.6075
 4774SOL    HW114500   8.218   6.318   6.247 -0.7594  0.2595 -0.1958
 4774SOL    HW214501   8.270   6.196   6.342  0.5351  2.8925  2.6502
 4775SOL     OW14502   1.497   0.490   5.125  0.0846  0.4799  0.2439
 4775SOL    HW114503   1.595   0.505   5.134  0.1927  1.6126 -1.9803
 4775SOL    HW214504   1.478   0.392   5.119  1.3376  0.2981 -1.3063
 4776SOL     OW14505   6.917   5.574   5.224  0.3283 -0.0283  0.0908
 4776SOL    HW114506   6.883   5.498   5.280 -0.8503  0.1843 -0.2946
 4776SOL    HW214507   6.853   5.590   5.148  1.0911  0.6919 -0.4143
 4777SOL     OW14508   8.664   5.535   4.384 -0.5244 -0.4584 -0.3475
 4777SOL    HW114509   8.599   5.511   4.312  1.1316 -0.1309 -2.0286
 4777SOL    HW214510   8.756   5.536   4.346  0.1735  2.0376  1.1940
 4778SOL     OW14511   6.449   5.611   4.347 -0.2189 -0.5216  0.0616
 4778SOL    HW114512   6.544   5.583   4.363  0.8668  2.0116 -1.1987
 4778SOL    HW214513   6.390   5.573   4.418  1.3055 -3.9551 -0.2964
 4779SOL     OW14514   0.326   1.669   7.135  0.7478  0.1719  0.7907
 4779SOL    HW114515   0.346   1.637   7.228 -0.7120 -3.7696 -0.0690
 4779SOL    HW214516   0.391   1.629   7.071  0.3870  1.0475 -0.1510
 4780SOL     OW14517   2.718   2.649   3.177 -0.3629 -0.0065  0.3985
 4780SOL    HW114518   2.684   2.733   3.134 -0.8318  0.3563  1.4315
 4780SOL    HW214519   2.722   2.575   3.110 -0.8946  0.5893 -0.2940
 4781SOL     OW14520   0.195   1.882   1.741 -0.5223  0.3172  0.4575
 4781SOL    HW114521   0.145   1.885   1.827  0.9725  2.9711  1.3603
 4781SOL    HW214522   0.209   1.976   1.707  1.8107 -0.4361 -0.9083
 4782SOL     OW14523   0.261   2.780   7.706 -0.1053 -0.5781  0.6411
 4782SOL    HW114524   0.252   2.687   7.672  0.2310 -0.5602  0.4975
 4782SOL    HW214525   0.178   2.832   7.686  0.3220 -0.3886 -0.7286
 4783SOL     OW14526   3.440   7.213   4.378  0.3862  0.0115  0.5940
 4783SOL    HW114527   3.381   7.229   4.457  1.4066  1.4672  1.1096
 4783SOL    HW214528   3.393   7.155   4.312 -0.1771 -1.9385  2.6029
 4784SOL     OW14529   6.491   3.746   7.274  0.0625  0.7166 -0.0490
 4784SOL    HW114530   6.462   3.744   7.369 -2.1612  1.6400 -0.6566
 4784SOL    HW214531   6.430   3.690   7.218  0.8484  0.8347 -1.0664
 4785SOL     OW14532   6.220   6.265   5.584  0.2165  0.1261  0.1928
 4785SOL    HW114533   6.211   6.275   5.684 -0.8622 -0.9498  0.2226
 4785SOL    HW214534   6.142   6.214   5.549  1.4204 -0.9685 -0.9945
 4786SOL     OW14535   1.152   7.841   5.973 -0.5763 -0.0352 -0.5342
 4786SOL    HW114536   1.229   7.810   6.029 -0.0766  2.3210  0.2253
 4786SOL    HW214537   1.173   7.931   5.934 -2.6745  0.3819 -0.8623
 4787SOL     OW14538   0.686   4.103   7.408 -0.1032  0.7418 -0.4998
 4787SOL    HW114539   0.645   4.141   7.491 -2.2005  3.1821 -2.4908
 4787SOL    HW214540   0.768   4.155   7.385  1.6256 -1.1939  1.0033
 4788SOL     OW14541   6.310   3.878   0.327  0.3635 -0.1205  0.3038
 4788SOL    HW114542   6.228   3.822   0.313  0.9499 -0.9043 -0.0812
 4788SOL    HW214543   6.390   3.818   0.334  1.1194  0.6937 -0.9369
 4789SOL     OW14544   5.902   3.240   8.712  0.2271  0.8894  0.4970
 4789SOL    HW114545   5.834   3.279   8.774 -0.6565 -0.0160  0.1093
 4789SOL    HW214546   5.954   3.170   8.759 -1.2457 -0.6530 -0.0710
 4790SOL     OW14547   4.637   1.178   2.530  0.1304 -0.1596  0.1981
 4790SOL    HW114548   4.652   1.216   2.621  0.2106  1.1306 -0.3189
 4790SOL    HW214549   4.558   1.224   2.488  0.2237 -0.5836 -0.4513
 4791SOL     OW14550   8.395   3.169   5.375  0.4201 -0.2979  0.4340
 4791SOL    HW114551   8.435   3.249   5.419  0.4136 -0.2705  0.3914
 4791SOL    HW214552   8.297   3.183   5.361  0.6782  0.2990 -0.8992
 4792SOL     OW14553   3.291   8.689   6.954  0.0918 -0.3718 -0.0507
 4792SOL    HW114554   3.349   8.738   6.889  0.0164  1.4605  1.1838
 4792SOL    HW214555   3.203   8.667   6.911 -0.7101  2.5254 -0.0996
 4793SOL     OW14556   0.381   0.633   6.863 -0.5849  0.9401 -0.1036
 4793SOL    HW114557   0.441   0.712   6.849  0.6240  0.1021  0.3036
 4793SOL    HW214558   0.431   0.559   6.908 -1.5408 -0.2877 -0.9901
 4794SOL     OW14559   6.566   8.526   5.023 -0.0859 -0.6921  0.1539
 4794SOL    HW114560   6.560   8.428   5.042 -1.1717 -0.4885  0.9159
 4794SOL    HW214561   6.607   8.539   4.932 -2.1383 -1.9594 -1.0332
 4795SOL     OW14562   8.177   1.089   2.439  0.8244 -0.1809 -0.0423
 4795SOL    HW114563   8.137   1.090   2.531  1.2863 -0.4064  0.1628
 4795SOL    HW214564   8.277   1.086   2.446  0.8537 -2.8196 -0.5305
 4796SOL     OW14565   8.221   1.682   7.450 -0.2386  1.2037  0.1115
 4796SOL    HW114566   8.289   1.664   7.379  0.2846  1.3613  0.5750
 4796SOL    HW214567   8.132   1.645   7.420 -0.0857  1.4914 -0.7387
 4797SOL     OW14568   8.092   5.835   8.151  0.0934  0.1745  0.2356
 4797SOL    HW114569   8.034   5.797   8.223 -2.1025 -0.2685 -1.6476
 4797SOL    HW214570   8.175   5.779   8.141 -0.9612 -1.4799  0.4910
 4798SOL     OW14571   5.874   1.190   2.144  0.3202  0.8127  0.1982
 4798SOL    HW114572   5.807   1.240   2.199 -0.1161  1.3166 -0.7639
 4798SOL    HW214573   5.830   1.156   2.061  1.2956  1.2961 -0.5336
 4799SOL     OW14574   7.030   0.843   3.713  0.2760  0.3546  0.5527
 4799SOL    HW114575   7.033   0.928   3.765  0.1864  0.6900  0.0229
 4799SOL    HW214576   7.103   0.844   3.644  1.4245 -0.7636  1.6926
 4800SOL     OW14577   2.324   7.213   6.198  0.4148 -0.2467  0.7754
 4800SOL    HW114578   2.356   7.118   6.199  1.6459  0.1545  0.9946
 4800SOL    HW214579   2.393   7.271   6.154 -0.4383  0.5084  0.4165
 4801SOL     OW14580   3.631   6.086   3.220 -0.3641  0.0992  0.3726
 4801SOL    HW114581   3.685   6.113   3.140 -0.4428 -0.4094  0.1422
 4801SOL    HW214582   3.587   6.166   3.260 -1.5198  0.1665 -0.9660
 4802SOL     OW14583   6.771   6.931   4.156  0.0749  0.1636 -0.2192
 4802SOL    HW114584   6.866   6.937   4.125  0.7573 -1.6558  1.2910
 4802SOL    HW214585   6.765   6.960   4.251 -0.5333 -1.3174  0.2282
 4803SOL     OW14586   4.240   2.310   0.273 -0.0745 -0.0366  0.0344
 4803SOL    HW114587   4.265   2.389   0.330 -1.1028  0.8201 -0.6623
 4803SOL    HW214588   4.266   2.226   0.320 -0.9210  0.6320  1.8164
 4804SOL     OW14589   6.388   8.597   3.083  0.0889 -0.0776  0.1296
 4804SOL    HW114590   6.308   8.599   3.023  1.5043  1.4817 -1.8321
 4804SOL    HW214591   6.372   8.533   3.158 -2.3070 -1.0731 -1.1333
 4805SOL     OW14592   3.048   2.317   6.346  0.4377 -0.3345 -0.3897
 4805SOL    HW114593   3.137   2.347   6.379  0.4576  1.5325 -1.9337
 4805SOL    HW214594   2.988   2.298   6.423  1.4204  0.7551  0.6794
 4806SOL     OW14595   5.037   5.607   2.740  0.3183  0.4793  0.0609
 4806SOL    HW114596   5.024   5.570   2.831 -0.8587 -0.5191 -0.4866
 4806SOL    HW214597   5.003   5.701   2.736 -0.0952  0.3519  0.5164
 4807SOL     OW14598   1.240   8.642   0.889  0.1196 -0.1246  0.0582
 4807SOL    HW114599   1.272   8.673   0.799 -0.4511 -2.5465 -1.0550
 4807SOL    HW214600   1.142   8.657   0.897 -0.0970 -1.2110 -0.3486
 4808SOL     OW14601   2.121   4.881   0.765 -0.4988  0.4321 -0.1648
 4808SOL    HW114602   2.031   4.919   0.784  0.3049  1.4819  1.8592
 4808SOL    HW214603   2.128   4.789   0.804 -0.8140  0.2050 -0.6452
 4809SOL     OW14604   1.400   7.365   2.636  0.2470 -0.0849  0.2375
 4809SOL    HW114605   1.354   7.453   2.640 -0.8383 -0.6764  2.3401
 4809SOL    HW214606   1.459   7.354   2.716  0.3336 -1.2682  0.0348
 4810SOL     OW14607   6.677   6.248   7.379 -0.5565  0.0243 -0.4607
 4810SOL    HW114608   6.774   6.229   7.397 -1.1803 -0.7993  2.4852
 4810SOL    HW214609   6.659   6.237   7.281  2.5061  1.2798 -1.3155
 4811SOL     OW14610   8.261   3.697   3.745  0.7054  0.0515 -0.3119
 4811SOL    HW114611   8.354   3.724   3.770  0.4255  0.0912  0.7641
 4811SOL    HW214612   8.200   3.713   3.823  0.0397 -1.2499 -0.5369
 4812SOL     OW14613   3.296   4.614   1.708  0.2535 -0.0099 -0.0551
 4812SOL    HW114614   3.250   4.658   1.631  1.7382  0.0310 -0.9548
 4812SOL    HW214615   3.267   4.657   1.793 -2.9913 -1.3639 -0.3156
 4813SOL     OW14616   1.794   3.583   2.459 -0.0405  0.0414  0.9262
 4813SOL    HW114617   1.698   3.609   2.453 -0.0870 -0.0553  1.2845
 4813SOL    HW214618   1.804   3.504   2.519  0.1726 -0.4097  0.3091
 4814SOL     OW14619   3.388   8.519   5.663  0.3543  0.5183  0.0258
 4814SOL    HW114620   3.487   8.529   5.656  0.1926  3.0159  0.3035
 4814SOL    HW214621   3.364   8.490   5.756  0.7682  1.5714  0.4780
 4815SOL     OW14622   8.164   3.486   7.555 -0.2774  0.8718 -0.0765
 4815SOL    HW114623   8.146   3.516   7.461 -0.5558 -0.0026 -0.3085
 4815SOL    HW214624   8.110   3.405   7.575  0.5110  0.4867  0.5293
 4816SOL     OW14625   4.410   1.088   8.100  0.6589 -0.6200  0.1147
 4816SOL    HW114626   4.429   1.182   8.072 -0.5750  0.5250  2.7691
 4816SOL    HW214627   4.480   1.057   8.164 -0.2000 -0.6005  1.0874
 4817SOL     OW14628   3.312   2.194   4.270 -0.3315 -0.5875  0.3132
 4817SOL    HW114629   3.243   2.245   4.219 -0.5666 -0.6624  0.5591
 4817SOL    HW214630   3.324   2.234   4.361 -1.2650 -1.5927  0.9004
 4818SOL     OW14631   5.124   6.864   7.983 -0.6408  0.2333 -0.1698
 4818SOL    HW114632   5.092   6.955   7.956 -2.0387  0.4529  1.9514
 4818SOL    HW214633   5.050   6.798   7.972 -0.4891 -0.1156  0.7713
 4819SOL     OW14634   7.102   5.148   1.265  0.1379  0.2513  0.1171
 4819SOL    HW114635   7.153   5.064   1.245  1.7129  1.2930 -0.4511
 4819SOL    HW214636   7.013   5.144   1.219  0.7366 -0.5383 -1.0368
 4820SOL     OW14637   7.879   0.058   3.791  0.4640  0.2185  0.5066
 4820SOL    HW114638   7.890   0.136   3.853  0.5397  1.4510 -0.9770
 4820SOL    HW214639   7.806  -0.001   3.824  0.1566  1.1185  1.4875
 4821SOL     OW14640   2.144   3.443   1.630 -0.4643  0.4037 -0.0586
 4821SOL    HW114641   2.240   3.422   1.649 -0.1102 -0.0104 -2.0498
 4821SOL    HW214642   2.137   3.534   1.589 -0.7019 -0.1916 -1.3934
 4822SOL     OW14643   7.996   1.154   5.310 -0.3684 -0.9690 -0.0728
 4822SOL    HW114644   8.029   1.245   5.337 -2.0984 -0.0644 -0.8305
 4822SOL    HW214645   8.041   1.126   5.226  0.6859 -1.1515  0.5333
 4823SOL     OW14646   5.304   8.573   3.505  0.5272 -0.5969  0.1343
 4823SOL    HW114647   5.227   8.543   3.561  0.1652 -1.2381 -0.6965
 4823SOL    HW214648   5.303   8.673   3.498 -2.1452 -0.6585 -2.4458
 4824SOL     OW14649   8.393   4.811   2.414 -0.0841 -0.2858 -0.5791
 4824SOL    HW114650   8.343   4.894   2.438 -0.8438 -0.7515 -0.5120
 4824SOL    HW214651   8.491   4.827   2.424 -0.2398  0.4861 -0.2125
 4825SOL     OW14652   5.691   0.413   1.210 -0.3630 -0.1660 -0.2989
 4825SOL    HW114653   5.742   0.442   1.129  0.1477 -1.0335 -0.2958
 4825SOL    HW214654   5.645   0.492   1.250  1.5917  0.7950  0.1549
 4826SOL     OW14655   1.141   2.585   4.500 -0.3382 -0.1484  0.2331
 4826SOL    HW114656   1.097   2.521   4.564 -0.2291 -0.2848  0.1712
 4826SOL    HW214657   1.092   2.584   4.413 -1.3883  1.1212  0.7789
 4827SOL     OW14658   4.304   2.759   2.853 -0.1849  0.1416  0.9185
 4827SOL    HW114659   4.211   2.775   2.887 -0.9622  0.1990 -1.0977
 4827SOL    HW214660   4.341   2.844   2.817 -0.4622 -0.3993 -0.7687
 4828SOL     OW14661   1.028   7.336   4.435  0.4383 -0.7794  0.4478
 4828SOL    HW114662   0.977   7.418   4.459  0.0043 -1.5036  2.1710
 4828SOL    HW214663   0.979   7.287   4.362 -0.9725 -1.0679  1.5321
 4829SOL     OW14664   1.589   0.750   4.134  0.0233  0.0286  0.4321
 4829SOL    HW114665   1.633   0.836   4.109 -1.4421  0.7699  0.2739
 4829SOL    HW214666   1.547   0.709   4.053  2.3602 -1.9033  0.0817
 4830SOL     OW14667   7.693   7.158   4.975  0.0896  0.4059 -0.2636
 4830SOL    HW114668   7.643   7.142   4.890  0.1874 -1.1500 -0.0551
 4830SOL    HW214669   7.683   7.254   5.002 -0.2303  0.8379 -1.8294
 4831SOL     OW14670   2.128   7.131   1.159 -0.7226  0.0891 -0.2556
 4831SOL    HW114671   2.191   7.054   1.146 -0.4871  0.5716 -2.3037
 4831SOL    HW214672   2.040   7.109   1.118 -1.4011  0.0825  1.1279
 4832SOL     OW14673   8.635   3.057   4.236 -0.3806 -0.5994  0.7060
 4832SOL    HW114674   8.603   2.965   4.256 -1.9188  0.0001  1.1175
 4832SOL    HW214675   8.596   3.088   4.149  1.0985 -0.7631 -0.0524
 4833SOL     OW14676   2.427   4.344   5.365  0.3297 -0.3775 -0.2318
 4833SOL    HW114677   2.342   4.310   5.323 -0.0626 -0.2144  0.4279
 4833SOL    HW214678   2.480   4.267   5.400 -1.3978 -0.2911  2.8828
 4834SOL     OW14679   2.586   3.412   1.494 -0.5219  0.6491 -0.4749
 4834SOL    HW114680   2.582   3.357   1.411  0.5472  0.7469 -0.6085
 4834SOL    HW214681   2.575   3.352   1.574  0.3543  0.2596 -0.6282
 4835SOL     OW14682   1.932   4.098   1.149  0.2479 -0.3441  0.2257
 4835SOL    HW114683   1.950   4.134   1.058  0.9532 -0.4092  0.3384
 4835SOL    HW214684   1.977   4.009   1.159  0.7478 -0.0258  0.8703
 4836SOL     OW14685   2.103   4.556   3.499 -0.2398  0.4157 -0.8501
 4836SOL    HW114686   2.094   4.589   3.405  0.0429  1.2674 -0.5841
 4836SOL    HW214687   2.094   4.633   3.562 -0.0757 -0.0990 -0.1950
 4837SOL     OW14688   0.925   6.883   1.214  0.3855 -0.0539 -0.7420
 4837SOL    HW114689   0.923   6.980   1.238 -0.2364 -0.1367 -0.4423
 4837SOL    HW214690   0.843   6.838   1.251  0.5213 -0.6290 -1.1358
 4838SOL     OW14691   7.385   2.940   7.418 -0.0491  0.1817  0.3862
 4838SOL    HW114692   7.334   2.953   7.333 -1.1322 -3.5219  0.3112
 4838SOL    HW214693   7.482   2.923   7.398 -0.3249 -0.8020 -0.1590
 4839SOL     OW14694   6.441   7.519   0.122  0.1346  0.1683  0.2586
 4839SOL    HW114695   6.490   7.463   0.190 -0.0921 -0.1728  0.1446
 4839SOL    HW214696   6.501   7.535   0.044 -0.0904 -0.6673 -0.1007
 4840SOL     OW14697   3.546   4.250   0.185 -0.4537 -0.5427 -0.2124
 4840SOL    HW114698   3.476   4.263   0.254 -1.1333  1.5537 -1.2403
 4840SOL    HW214699   3.548   4.154   0.157 -0.5241 -1.3254  2.2675
 4841SOL     OW14700   1.608   2.418   2.359 -0.2761 -0.1465 -0.1653
 4841SOL    HW114701   1.545   2.382   2.429  0.8451 -0.9929  0.4403
 4841SOL    HW214702   1.658   2.343   2.318 -0.2027  0.4530 -1.1969
 4842SOL     OW14703   4.410   5.296   3.004  0.2029  0.5915 -0.4408
 4842SOL    HW114704   4.454   5.325   3.089 -1.7445  0.6514  0.5909
 4842SOL    HW214705   4.313   5.320   3.006 -0.1514 -0.4891 -2.1841
 4843SOL     OW14706   2.387   2.299   5.932 -0.0204 -0.3242 -0.1912
 4843SOL    HW114707   2.383   2.286   6.031  1.4378  0.0813 -0.0579
 4843SOL    HW214708   2.379   2.396   5.911 -2.3069 -0.5613 -0.6258
 4844SOL     OW14709   7.718   6.077   7.323 -0.0336  0.1030  0.1534
 4844SOL    HW114710   7.632   6.028   7.309 -0.0946  0.3224 -0.2585
 4844SOL    HW214711   7.794   6.023   7.286 -0.1264  0.4101 -0.5068
 4845SOL     OW14712   1.427   6.102   7.287 -0.3287  0.1398 -0.4187
 4845SOL    HW114713   1.396   6.079   7.195 -0.7008 -1.5900  0.1020
 4845SOL    HW214714   1.458   6.019   7.334  1.4459  1.2258  0.4561
 4846SOL     OW14715   0.748   2.618   4.000 -0.6588 -0.7232 -0.2022
 4846SOL    HW114716   0.690   2.617   4.081 -0.2023 -0.2846  0.1385
 4846SOL    HW214717   0.844   2.613   4.027 -0.4866 -0.2559 -0.6916
 4847SOL     OW14718   2.329   5.762   7.468 -0.3652 -0.0611  0.3581
 4847SOL    HW114719   2.358   5.768   7.372  0.9812  1.6631  0.8169
 4847SOL    HW214720   2.265   5.836   7.488  0.0587  0.1424  1.0026
 4848SOL     OW14721   7.213   7.444   2.733  0.2665 -0.2768 -0.2426
 4848SOL    HW114722   7.296   7.500   2.742  0.0990 -0.0212 -0.2666
 4848SOL    HW214723   7.185   7.441   2.637 -0.7474  1.1096 -0.0260
 4849SOL     OW14724   5.491   3.174   6.206  0.0758  0.4081 -0.7820
 4849SOL    HW114725   5.445   3.146   6.290 -0.7127  0.4924 -1.1718
 4849SOL    HW214726   5.588   3.190   6.224 -0.1512  0.7558  0.1773
 4850SOL     OW14727   5.171   2.192   1.919  0.0996  0.0741  0.1797
 4850SOL    HW114728   5.265   2.219   1.939 -0.0793  1.1230 -0.3432
 4850SOL    HW214729   5.129   2.259   1.858 -0.1235 -1.7925 -1.8351
 4851SOL     OW14730   7.764   5.344   6.328 -0.0274  0.2251  0.6362
 4851SOL    HW114731   7.832   5.389   6.387  0.7476  0.3744 -0.3426
 4851SOL    HW214732   7.680   5.398   6.326 -0.3980 -0.2465  2.3042
 4852SOL     OW14733   7.057   6.340   7.772  0.1971 -0.6113 -0.1161
 4852SOL    HW114734   6.967   6.318   7.811 -0.5144  1.8680 -0.1354
 4852SOL    HW214735   7.128   6.316   7.838 -0.6588 -0.6260  0.8372
 4853SOL     OW14736   0.892   7.879   0.301  0.1439  0.3993  0.5557
 4853SOL    HW114737   0.944   7.939   0.361  0.2061 -0.3526  1.2695
 4853SOL    HW214738   0.908   7.904   0.206  1.0180  0.8158  0.8080
 4854SOL     OW14739   3.260   6.520   6.966  0.1003  0.0041  0.0142
 4854SOL    HW114740   3.177   6.512   6.910  0.6027 -0.6034 -0.6623
 4854SOL    HW214741   3.239   6.572   7.048 -0.2071  2.7302 -1.6669
 4855SOL     OW14742   8.783   0.844   2.705  0.0307  0.5146 -0.3017
 4855SOL    HW114743   8.876   0.814   2.684 -0.0719  0.5980 -0.9127
 4855SOL    HW214744   8.721   0.766   2.696 -0.6819  1.3469 -4.7763
 4856SOL     OW14745   3.783   7.191   0.836  0.3405  0.2207 -0.3527
 4856SOL    HW114746   3.781   7.267   0.771  0.5027 -0.3460 -1.0237
 4856SOL    HW214747   3.876   7.156   0.844  0.6913  1.4388  1.5579
 4857SOL     OW14748   3.682   1.860   7.236 -0.6900  0.0508  0.1262
 4857SOL    HW114749   3.744   1.782   7.249 -1.8087 -0.8252  0.3828
 4857SOL    HW214750   3.718   1.939   7.284  0.1216 -0.5026  0.4539
 4858SOL     OW14751   7.275   0.595   5.426  0.0889 -0.4187 -0.0565
 4858SOL    HW114752   7.255   0.606   5.524  1.8540 -0.8950  0.3959
 4858SOL    HW214753   7.343   0.524   5.414  1.2029  0.8148 -1.4833
 4859SOL     OW14754   7.870   0.798   6.979 -0.7274  0.9693  0.1083
 4859SOL    HW114755   7.827   0.811   6.890 -0.9861 -0.4230  0.0056
 4859SOL    HW214756   7.963   0.835   6.976 -0.4111  0.1654 -1.0442
 4860SOL     OW14757   4.190   2.534   6.603  0.5490  0.1805 -0.4041
 4860SOL    HW114758   4.217   2.458   6.544 -1.3152 -0.9526  0.0849
 4860SOL    HW214759   4.115   2.585   6.560  0.5552  0.6150  0.0831
 4861SOL     OW14760   0.874   4.270   1.308 -0.2637  0.3643  0.1920
 4861SOL    HW114761   0.860   4.364   1.279 -0.2485  1.0245  2.1970
 4861SOL    HW214762   0.843   4.259   1.403  1.3073 -1.2153  0.5831
 4862SOL     OW14763   6.972   8.491   5.736 -0.3407 -0.4852  0.5297
 4862SOL    HW114764   6.943   8.484   5.640  1.8111 -1.3864 -0.1278
 4862SOL    HW214765   7.055   8.546   5.741 -0.9474  0.3573  2.0532
 4863SOL     OW14766   5.979   6.965   1.990 -0.6543 -0.0107  0.1027
 4863SOL    HW114767   6.023   7.003   2.071 -0.9910  1.4776 -0.3797
 4863SOL    HW214768   5.937   6.877   2.012  2.3274 -1.4203  0.6576
 4864SOL     OW14769   4.605   2.696   3.642 -0.6456  0.0882 -0.1936
 4864SOL    HW114770   4.512   2.696   3.680  0.5409  0.9052  3.0576
 4864SOL    HW214771   4.630   2.602   3.617 -1.7413 -0.4434  0.6036
 4865SOL     OW14772   0.665   4.379   2.396 -0.4933 -0.2440  0.0666
 4865SOL    HW114773   0.687   4.286   2.368  2.5501  0.3447  0.1811
 4865SOL    HW214774   0.591   4.415   2.339  0.7830 -1.4764 -2.5403
 4866SOL     OW14775   2.556   7.865   8.343 -0.4699 -0.3289  0.4386
 4866SOL    HW114776   2.569   7.916   8.258  0.6837  1.4884  1.6441
 4866SOL    HW214777   2.644   7.850   8.387 -1.0069 -1.6475  1.0997
 4867SOL     OW14778   4.160   2.980   3.305 -0.5097  0.4114 -0.3590
 4867SOL    HW114779   4.235   2.914   3.305 -0.0015  0.9754 -0.4422
 4867SOL    HW214780   4.075   2.935   3.277 -0.0637 -0.0788 -0.9414
 4868SOL     OW14781   6.794   0.432   2.571  0.3235  0.2177  0.2474
 4868SOL    HW114782   6.804   0.490   2.490  1.3808 -0.1785  0.0783
 4868SOL    HW214783   6.879   0.431   2.622  0.5349 -1.6126 -0.0637
 4869SOL     OW14784   4.021   6.523   6.633  0.0573 -0.4618  0.4109
 4869SOL    HW114785   4.016   6.621   6.653  1.3805 -0.2882 -0.0603
 4869SOL    HW214786   4.107   6.502   6.587 -1.4340 -1.3806 -2.1827
 4870SOL     OW14787   3.458   5.157   4.504 -0.1471 -0.4001 -0.3310
 4870SOL    HW114788   3.530   5.090   4.486  1.2240  1.2037 -1.1570
 4870SOL    HW214789   3.378   5.136   4.449  0.6749 -0.7542 -1.4305
 4871SOL     OW14790   3.046   7.811   5.894 -0.1692 -0.4196  0.0807
 4871SOL    HW114791   3.038   7.716   5.922 -0.8826 -0.1817  0.7266
 4871SOL    HW214792   3.075   7.867   5.973 -1.4861  0.1488  0.1922
 4872SOL     OW14793   3.879   6.709   4.315  0.0728  0.1389 -0.5526
 4872SOL    HW114794   3.884   6.648   4.394 -1.3838 -1.2303 -1.4351
 4872SOL    HW214795   3.875   6.654   4.232  0.2614  1.5121 -1.4907
 4873SOL     OW14796   8.517   8.093   7.113  0.0887  0.3346  0.1574
 4873SOL    HW114797   8.515   8.028   7.189  0.4275  0.1597  0.0177
 4873SOL    HW214798   8.610   8.097   7.075 -0.5346 -1.2104 -1.6498
 4874SOL     OW14799   4.801   6.688   2.999  0.0098 -0.7591  0.1405
 4874SOL    HW114800   4.754   6.664   2.914  0.4879  0.8833 -0.6250
 4874SOL    HW214801   4.857   6.611   3.030 -1.6680 -2.0767  0.0523
 4875SOL     OW14802   4.605   2.279   6.722 -0.1457 -0.5149  0.3757
 4875SOL    HW114803   4.562   2.192   6.698  1.3084 -0.9961 -0.5675
 4875SOL    HW214804   4.546   2.354   6.690 -1.7929 -1.0918  1.8814
 4876SOL     OW14805   5.989   5.767   6.697  0.1888  0.4335 -0.2716
 4876SOL    HW114806   6.077   5.730   6.668  0.0212 -1.5910  1.5372
 4876SOL    HW214807   5.919   5.695   6.692 -1.0209  1.5641 -0.1630
 4877SOL     OW14808   1.699   7.906   1.257 -0.2430  0.5240  0.2121
 4877SOL    HW114809   1.697   7.870   1.350 -1.3346 -0.1439 -0.0591
 4877SOL    HW214810   1.610   7.946   1.235  0.2925  1.5072 -0.2348
 4878SOL     OW14811   3.266   2.460   4.702  0.1144 -0.1799  0.0088
 4878SOL    HW114812   3.213   2.510   4.770 -0.8974  0.1353 -0.9619
 4878SOL    HW214813   3.340   2.410   4.746  0.0542  0.7507  1.2096
 4879SOL     OW14814   3.885   2.047   8.627  0.0374 -0.2323  0.3860
 4879SOL    HW114815   3.903   1.974   8.560  2.4032  0.8051 -0.2039
 4879SOL    HW214816   3.837   2.008   8.705 -0.2929 -2.0697 -0.6560
 4880SOL     OW14817   0.629   3.462   4.304  0.8514  0.6267  0.2582
 4880SOL    HW114818   0.611   3.554   4.269 -1.0132  0.1769 -0.0791
 4880SOL    HW214819   0.683   3.468   4.388 -0.3878  2.1242  0.9901
 4881SOL     OW14820   0.870   2.969   6.008  0.1341  0.6489 -0.0543
 4881SOL    HW114821   0.901   2.907   5.935 -0.4275 -0.4661  0.6358
 4881SOL    HW214822   0.949   2.998   6.062  0.3008 -0.1390  0.1307
 4882SOL     OW14823   3.871   7.847   6.826 -0.1139 -0.1926 -0.2352
 4882SOL    HW114824   3.840   7.854   6.921 -1.2508  0.0358 -0.6084
 4882SOL    HW214825   3.879   7.750   6.801 -0.9915 -0.2651 -0.2655
 4883SOL     OW14826   1.923   2.343   7.761  0.0047  0.1373 -0.0123
 4883SOL    HW114827   1.886   2.410   7.696  0.5581 -1.4107 -2.0169
 4883SOL    HW214828   2.004   2.300   7.722  0.8134 -0.3404  2.0639
 4884SOL     OW14829   4.390   8.147   3.437 -0.1874 -0.2376  0.5746
 4884SOL    HW114830   4.362   8.242   3.446 -0.4019 -0.1957 -0.4162
 4884SOL    HW214831   4.487   8.138   3.461 -0.5045 -0.0202  1.9842
 4885SOL     OW14832   4.889   6.336   6.128  0.2226 -0.0528  0.3707
 4885SOL    HW114833   4.866   6.347   6.225 -1.2822  1.9364 -0.1558
 4885SOL    HW214834   4.812   6.296   6.079  1.2175 -1.6882  0.0539
 4886SOL     OW14835   0.697   7.105   0.308 -0.4418  0.0104  0.1910
 4886SOL    HW114836   0.611   7.077   0.266 -0.1267  0.3437 -0.6955
 4886SOL    HW214837   0.678   7.168   0.383 -0.9981 -0.3841  0.3883
 4887SOL     OW14838   1.424   3.923   5.026  0.3081 -0.4166 -0.3358
 4887SOL    HW114839   1.342   3.979   5.014  1.5859  2.1375  1.6935
 4887SOL    HW214840   1.499   3.960   4.971  1.6564  1.1629  2.3385
 4888SOL     OW14841   0.411   6.620   2.746 -0.5168  0.4818 -0.0538
 4888SOL    HW114842   0.391   6.657   2.836  0.3528 -0.4270  0.5387
 4888SOL    HW214843   0.393   6.522   2.745  3.0043 -0.3265  0.3680
 4889SOL     OW14844   3.136   7.038   5.910 -0.4454 -0.4593 -0.1148
 4889SOL    HW114845   3.111   6.995   5.996  1.5177 -0.5153  0.4772
 4889SOL    HW214846   3.202   7.112   5.927 -2.1409  1.4590 -1.3038
 4890SOL     OW14847   0.529   4.053   7.157  0.6642 -0.2139  0.0713
 4890SOL    HW114848   0.430   4.068   7.163  0.1823 -2.5955 -0.7095
 4890SOL    HW214849   0.571   4.073   7.246 -0.3096  1.8473  0.1304
 4891SOL     OW14850   5.059   1.372   2.965  0.2257  0.5168  0.3173
 4891SOL    HW114851   5.120   1.331   2.897  1.0834 -1.9182  2.4095
 4891SOL    HW214852   4.971   1.324   2.964 -0.3609  1.5706 -0.1582
 4892SOL     OW14853   5.424   4.592   1.457  0.1850 -0.5636  0.2938
 4892SOL    HW114854   5.329   4.572   1.431  0.2048  0.6299 -0.8082
 4892SOL    HW214855   5.477   4.508   1.455 -0.2462 -0.8631 -1.8451
 4893SOL     OW14856   3.287   4.022   6.924  0.4480  0.0081  0.1323
 4893SOL    HW114857   3.325   4.051   7.012  1.1282 -0.7731  0.1087
 4893SOL    HW214858   3.193   3.992   6.936  0.8244 -0.9526  0.7689
 4894SOL     OW14859   8.862   5.546   2.769 -0.2925 -0.4750 -0.0005
 4894SOL    HW114860   8.824   5.612   2.705 -0.0623  1.1265  1.4551
 4894SOL    HW214861   8.957   5.525   2.744  0.0229  0.6711  0.2076
 4895SOL     OW14862   2.946   5.224   0.977 -0.0260  0.0917  0.3087
 4895SOL    HW114863   2.953   5.142   1.034 -0.3672  0.6981  1.2625
 4895SOL    HW214864   2.971   5.202   0.883  0.3964 -0.9794  0.6555
 4896SOL     OW14865   5.994   8.683   7.133  0.0815 -0.3414 -0.7532
 4896SOL    HW114866   6.061   8.731   7.190  2.0702  0.4862 -3.5349
 4896SOL    HW214867   5.983   8.590   7.166  0.2706  0.3929  1.5710
 4897SOL     OW14868   5.552   1.969   3.576  0.2297 -0.0733  0.7034
 4897SOL    HW114869   5.530   1.954   3.479 -0.0182 -1.6237  0.9773
 4897SOL    HW214870   5.480   2.024   3.618  0.1147  0.2386  0.1164
 4898SOL     OW14871   2.389   5.407   5.347 -0.2701  0.0276 -0.2332
 4898SOL    HW114872   2.355   5.426   5.255 -0.3749 -0.5009 -0.3113
 4898SOL    HW214873   2.489   5.408   5.346 -0.2781  0.8336 -0.1718
 4899SOL     OW14874   3.646   2.473   0.050 -0.3726 -0.1144 -0.4072
 4899SOL    HW114875   3.728   2.525   0.073  1.8220 -3.0799 -1.0337
 4899SOL    HW214876   3.636   2.469  -0.049  0.1262 -1.7003 -0.4202
 4900SOL     OW14877   8.681   1.816   4.272 -0.2904  0.0064 -0.2324
 4900SOL    HW114878   8.737   1.839   4.192  1.5912 -1.5065  0.5551
 4900SOL    HW214879   8.669   1.898   4.329 -0.3042  0.7363 -1.2653
 4901SOL     OW14880   7.877   8.059   3.707  0.5899  0.3700  0.5606
 4901SOL    HW114881   7.934   8.004   3.645  0.7397 -0.5729  1.5131
 4901SOL    HW214882   7.800   8.003   3.740  0.5800  0.8223  1.3242
 4902SOL     OW14883   8.537   2.773   2.326  0.0022 -0.3556 -0.0783
 4902SOL    HW114884   8.613   2.709   2.328  0.2986 -0.0064 -0.1253
 4902SOL    HW214885   8.526   2.816   2.416  0.9983  0.9157 -0.5331
 4903SOL     OW14886   4.326   6.365   2.894  0.0795 -0.3851  0.5407
 4903SOL    HW114887   4.265   6.400   2.965 -1.2560 -0.6423 -0.4330
 4903SOL    HW214888   4.274   6.351   2.810  1.1972 -1.9462  0.0716
 4904SOL     OW14889   8.323   3.785   0.496 -0.2163 -0.1194  0.2920
 4904SOL    HW114890   8.292   3.870   0.539 -2.2510 -1.2829  1.2882
 4904SOL    HW214891   8.414   3.798   0.458 -0.8067  2.7613 -0.3728
 4905SOL     OW14892   7.677   4.596   1.049  0.5402  0.0230 -0.5767
 4905SOL    HW114893   7.742   4.671   1.059 -0.3651  0.8124 -0.5396
 4905SOL    HW214894   7.584   4.632   1.047  0.1282 -1.0310 -1.3452
 4906SOL     OW14895   3.401   2.843   4.869  0.5681  0.1754 -0.6553
 4906SOL    HW114896   3.335   2.833   4.944  0.3946 -1.3188 -0.9882
 4906SOL    HW214897   3.466   2.767   4.871  2.1488  1.4711 -0.4995
 4907SOL     OW14898   5.540   6.548   8.023 -0.3566  0.4127  0.2625
 4907SOL    HW114899   5.588   6.632   8.000 -1.1005  0.8940  0.4251
 4907SOL    HW214900   5.441   6.561   8.012 -0.5414 -0.1886  1.0600
 4908SOL     OW14901   4.771   2.053   5.699  0.1277 -0.0768  0.2292
 4908SOL    HW114902   4.826   2.120   5.649 -0.3875  0.2427  0.0822
 4908SOL    HW214903   4.752   1.974   5.641  0.2106 -0.0711  0.1943
 4909SOL     OW14904   3.471   7.661   4.411  0.6455  0.7984 -0.1755
 4909SOL    HW114905   3.371   7.667   4.401  0.1438 -2.3550  1.7150
 4909SOL    HW214906   3.506   7.591   4.349  0.9595 -1.2670  2.1976
 4910SOL     OW14907   7.385   5.282   8.482  0.3612  0.3313 -0.5777
 4910SOL    HW114908   7.445   5.317   8.410  0.9141 -0.4655 -0.5220
 4910SOL    HW214909   7.335   5.358   8.524  0.4211  0.8671 -1.4411
 4911SOL     OW14910   8.850   3.554   3.040  0.1908 -0.8389  0.1555
 4911SOL    HW114911   8.873   3.504   2.957  2.1698 -0.9354  0.7029
 4911SOL    HW214912   8.854   3.492   3.119  0.5931 -0.2699  0.5904
 4912SOL     OW14913   1.361   2.854   2.208 -0.5621  0.0748  0.0813
 4912SOL    HW114914   1.355   2.775   2.147  1.6168  0.3286 -0.5368
 4912SOL    HW214915   1.456   2.884   2.215 -1.2811  2.4486  0.5601
 4913SOL     OW14916   4.586   2.351   2.779  0.1837  0.2017  0.7575
 4913SOL    HW114917   4.606   2.352   2.877  0.4871 -2.2467  0.7748
 4913SOL    HW214918   4.501   2.400   2.762  0.8853  1.9480  2.0181
 4914SOL     OW14919   8.090   3.044   8.542 -0.1780  0.2791  0.7327
 4914SOL    HW114920   8.165   2.997   8.587  1.7698  1.3419 -1.2219
 4914SOL    HW214921   8.107   3.142   8.542 -1.1266  0.4727 -0.4808
 4915SOL     OW14922   4.241   1.312   1.567  0.1153  0.6785 -0.3271
 4915SOL    HW114923   4.172   1.273   1.508  0.2065  1.4477 -0.9613
 4915SOL    HW214924   4.297   1.377   1.515  0.0501  1.5442  0.6463
 4916SOL     OW14925   3.251   5.470   2.289  0.1835 -0.2148  0.6632
 4916SOL    HW114926   3.312   5.439   2.362  2.5700  0.0625 -1.1106
 4916SOL    HW214927   3.232   5.393   2.227  0.2170  0.1366  0.2125
 4917SOL     OW14928   6.321   5.200   7.345  0.2120 -0.0087 -0.1618
 4917SOL    HW114929   6.411   5.240   7.327  1.2406 -2.1400 -0.1626
 4917SOL    HW214930   6.272   5.186   7.259  0.1374  0.5805 -0.2178
 4918SOL     OW14931   0.839   5.202   5.955  0.1164 -0.2029  0.5963
 4918SOL    HW114932   0.925   5.244   5.984 -1.0653  0.7832  2.9194
 4918SOL    HW214933   0.766   5.270   5.956 -0.9347 -1.2690 -0.2342
 4919SOL     OW14934   8.628   3.346   8.696 -0.9022  0.0314  0.2392
 4919SOL    HW114935   8.725   3.358   8.679 -0.9185 -0.7549 -0.4939
 4919SOL    HW214936   8.577   3.424   8.659 -0.7473 -0.6786 -1.5502
 4920SOL     OW14937   1.708   5.648   5.104  0.4226  0.0829 -0.6248
 4920SOL    HW114938   1.715   5.712   5.180 -0.8023 -1.7913  1.1643
 4920SOL    HW214939   1.787   5.587   5.105 -1.0163 -1.8888  1.1186
 4921SOL     OW14940   2.777   7.297   4.746 -0.2905 -0.3754 -0.0666
 4921SOL    HW114941   2.753   7.363   4.818  2.5039 -1.2936  1.8791
 4921SOL    HW214942   2.720   7.215   4.757 -1.1593  0.2084 -0.0998
 4922SOL     OW14943   7.255   6.958   7.418 -0.3892 -0.4271  0.1750
 4922SOL    HW114944   7.283   7.039   7.366 -0.4309 -0.9743 -0.7139
 4922SOL    HW214945   7.294   6.962   7.510 -0.7730  0.8299  0.3021
 4923SOL     OW14946   6.752   7.771   6.128  0.3937  0.0439 -0.8093
 4923SOL    HW114947   6.754   7.699   6.198  2.3966 -0.5693 -1.4252
 4923SOL    HW214948   6.836   7.824   6.132 -1.3232  2.9003  0.0824
 4924SOL     OW14949   5.485   8.072   8.591  0.1640 -0.3906  0.1854
 4924SOL    HW114950   5.419   8.026   8.651 -0.5460 -0.2628 -0.4905
 4924SOL    HW214951   5.471   8.043   8.497 -0.2742  1.1717 -0.2584
 4925SOL     OW14952   0.039   4.556   3.038 -0.7917 -0.1869  0.1599
 4925SOL    HW114953  -0.010   4.521   3.117 -0.9186  1.2231  0.7299
 4925SOL    HW214954   0.052   4.655   3.047  2.7860 -0.5403  0.4057
 4926SOL     OW14955   1.495   0.833   7.007 -0.4994  0.5677  0.5766
 4926SOL    HW114956   1.465   0.766   7.075 -2.3658 -0.0355 -0.7403
 4926SOL    HW214957   1.415   0.864   6.955  1.0980 -1.2791 -3.3411
 4927SOL     OW14958   7.165   8.586   0.942  0.0127  0.4811 -0.2158
 4927SOL    HW114959   7.086   8.572   1.002  0.1298 -1.6265 -0.4673
 4927SOL    HW214960   7.241   8.531   0.975  0.3792  0.0413 -1.7474
 4928SOL     OW14961   4.693   6.020   1.871 -0.5709 -0.1102  0.0117
 4928SOL    HW114962   4.621   6.060   1.814 -1.5193  0.7279  1.7098
 4928SOL    HW214963   4.737   6.091   1.924  0.1293 -0.8915  0.4982
 4929SOL     OW14964   5.421   6.087   6.454  0.3221 -0.0358  0.7840
 4929SOL    HW114965   5.445   6.120   6.545  2.8094 -0.9898  0.5567
 4929SOL    HW214966   5.479   6.131   6.385 -0.5388 -0.3632 -0.1841
 4930SOL     OW14967   7.143   3.879   4.444  0.1911 -0.4186  0.8978
 4930SOL    HW114968   7.134   3.831   4.356  1.9827 -1.5784  1.2938
 4930SOL    HW214969   7.072   3.950   4.451 -0.6676 -1.0277 -0.9961
 4931SOL     OW14970   0.707   2.069   0.171  0.2885  0.1259 -0.2517
 4931SOL    HW114971   0.788   2.126   0.160  0.3641  0.0712  0.0221
 4931SOL    HW214972   0.633   2.124   0.212  1.4042 -0.7802  3.3965
 4932SOL     OW14973   3.708   4.343   6.156  0.3883  0.0683 -0.2192
 4932SOL    HW114974   3.677   4.247   6.152 -0.6764  0.2823  1.5844
 4932SOL    HW214975   3.628   4.403   6.155  0.9819  0.8688  0.1467
 4933SOL     OW14976   8.441   6.483   7.298  0.2670  0.2171  0.6544
 4933SOL    HW114977   8.392   6.407   7.255 -0.8041  0.7930  0.8251
 4933SOL    HW214978   8.539   6.473   7.281 -0.1693  1.2743 -3.4224
 4934SOL     OW14979   5.331   2.778   4.701 -1.0709 -0.0804  0.0642
 4934SOL    HW114980   5.376   2.866   4.718  0.0804 -0.9281  1.6549
 4934SOL    HW214981   5.238   2.781   4.739 -0.3447 -0.1694  1.9472
 4935SOL     OW14982   2.513   4.240   6.535 -0.5533  0.3280 -0.2542
 4935SOL    HW114983   2.539   4.326   6.490 -0.6193 -0.2803 -1.4780
 4935SOL    HW214984   2.491   4.172   6.467 -0.6739 -0.6300  0.7163
 4936SOL     OW14985   0.345   6.362   4.826 -0.6352 -0.2072 -0.2524
 4936SOL    HW114986   0.304   6.449   4.796 -1.6722 -0.9964 -1.2023
 4936SOL    HW214987   0.414   6.333   4.760 -0.1566 -0.0236  0.1614
 4937SOL     OW14988   4.109   7.155   3.776  0.5171 -0.7378 -0.0525
 4937SOL    HW114989   4.156   7.195   3.697 -1.5170  0.4083 -0.7467
 4937SOL    HW214990   4.067   7.068   3.749  0.3263 -0.6412 -0.0677
 4938SOL     OW14991   0.822   6.989   0.612  0.4014  0.3949  0.1931
 4938SOL    HW114992   0.868   7.005   0.525 -0.3344  0.1138 -0.2581
 4938SOL    HW214993   0.748   6.922   0.599 -3.2358  4.0902 -0.2176
 4939SOL     OW14994   1.865   4.118   0.767  0.4577  0.2200 -0.1775
 4939SOL    HW114995   1.802   4.059   0.717  2.2222 -0.6655 -1.4723
 4939SOL    HW214996   1.959   4.096   0.740  1.3851  0.9378  2.2676
 4940SOL     OW14997   5.803   2.821   7.806  0.1328 -0.1829  0.0504
 4940SOL    HW114998   5.810   2.727   7.771 -0.1079 -0.1857  0.0071
 4940SOL    HW214999   5.890   2.867   7.795  0.9384 -1.1016  2.0837
 4941SOL     OW15000   0.883   2.445   7.926  0.6943 -0.0442  0.0033
 4941SOL    HW115001   0.904   2.416   8.019 -1.2946 -1.8500 -0.0326
 4941SOL    HW215002   0.809   2.512   7.929  2.0234  1.5010 -0.2155
 4942SOL     OW15003   7.573   7.006   5.327 -0.7632 -0.1173  0.4388
 4942SOL    HW115004   7.483   6.989   5.289 -0.4168  1.4128 -1.1916
 4942SOL    HW215005   7.564   7.055   5.414 -1.5162  0.8595 -0.1683
 4943SOL     OW15006   4.936   1.580   0.352 -0.1218 -0.4562  0.1706
 4943SOL    HW115007   4.862   1.639   0.320  0.9420  0.8574 -0.0018
 4943SOL    HW215008   4.995   1.632   0.414 -0.1743 -1.9204  1.5070
 4944SOL     OW15009   2.188   0.740   5.961  0.0185  0.0872 -0.0374
 4944SOL    HW115010   2.193   0.642   5.979  1.4132  0.2397  0.4953
 4944SOL    HW215011   2.128   0.757   5.883 -3.3147 -0.8909  2.0942
 4945SOL     OW15012   1.201   3.477   4.278 -0.3286  0.4997  0.4638
 4945SOL    HW115013   1.223   3.415   4.202  1.0804  1.5348 -0.0166
 4945SOL    HW215014   1.227   3.433   4.364  2.0333  0.9162  0.0316
 4946SOL     OW15015   5.116   3.658   1.768 -0.1318 -0.4556  0.3093
 4946SOL    HW115016   5.019   3.653   1.744 -0.2305 -0.8841  0.7883
 4946SOL    HW215017   5.131   3.611   1.855  0.2597  0.8458  0.9686
 4947SOL     OW15018   5.929   5.656   6.160  0.0947  0.0482  0.4014
 4947SOL    HW115019   5.953   5.682   6.067 -0.8159 -1.5011 -0.3098
 4947SOL    HW215020   5.872   5.728   6.201 -0.9077  0.0227 -0.8707
 4948SOL     OW15021   3.595   4.308   3.099  0.1571  0.0387  0.1088
 4948SOL    HW115022   3.557   4.295   3.190 -1.3197  0.5335 -0.4059
 4948SOL    HW215023   3.662   4.236   3.080  0.4785 -0.0796  1.5572
 4949SOL     OW15024   0.970   2.396   2.513 -0.1833 -0.2314 -0.7483
 4949SOL    HW115025   0.899   2.330   2.540 -0.3167  0.1147 -0.2310
 4949SOL    HW215026   1.024   2.358   2.438 -2.1821  0.2722 -2.5752
 4950SOL     OW15027   8.177   3.981   5.743  0.6767 -0.2862 -0.3478
 4950SOL    HW115028   8.083   3.955   5.764  0.5187  0.0768 -0.5890
 4950SOL    HW215029   8.178   4.070   5.697  1.0477 -0.7961 -1.3742
 4951SOL     OW15030   2.082   2.515   2.979 -0.0646 -0.6664 -0.1407
 4951SOL    HW115031   2.120   2.595   2.933 -0.5538 -1.1395 -1.4118
 4951SOL    HW215032   2.144   2.437   2.966  0.5778 -0.4457  1.3763
 4952SOL     OW15033   5.755   5.045   3.624 -0.0237  0.5271  0.1162
 4952SOL    HW115034   5.691   5.093   3.684 -2.2123 -0.9737 -0.8669
 4952SOL    HW215035   5.723   5.051   3.530  0.5889 -1.3081 -0.2567
 4953SOL     OW15036   0.917   1.622   1.210 -0.3498  0.1969  0.4297
 4953SOL    HW115037   0.924   1.681   1.130  1.9963  0.5877  0.8525
 4953SOL    HW215038   0.906   1.678   1.292 -1.4544 -0.1459  0.5378
 4954SOL     OW15039   2.842   0.984   0.988 -0.0793  0.1479 -0.1159
 4954SOL    HW115040   2.883   1.025   1.070  0.8531 -1.1849  0.1094
 4954SOL    HW215041   2.754   0.942   1.012 -0.4009  0.8189 -0.0767
 4955SOL     OW15042   2.256   3.755   7.336 -0.0621 -0.2753  0.5051
 4955SOL    HW115043   2.204   3.809   7.402 -0.2554  0.1243  0.0323
 4955SOL    HW215044   2.218   3.663   7.331 -0.8543  0.0667  0.0310
 4956SOL     OW15045   8.559   2.649   0.492 -0.2674 -0.0618 -0.6521
 4956SOL    HW115046   8.488   2.684   0.431  1.2958  0.6149 -2.1501
 4956SOL    HW215047   8.558   2.549   0.491 -0.5135 -0.0557 -1.4883
 4957SOL     OW15048   3.041   0.413   7.751  0.4770 -0.3517 -0.8919
 4957SOL    HW115049   3.056   0.502   7.795 -1.4351 -0.4867  0.1592
 4957SOL    HW215050   2.959   0.418   7.694  2.3391 -0.4897 -3.7276
 4958SOL     OW15051   2.189   5.729   1.300  0.1828  0.5046 -0.4656
 4958SOL    HW115052   2.241   5.795   1.354 -0.1347  0.4245 -0.0499
 4958SOL    HW215053   2.220   5.636   1.322 -0.1508  0.4552 -0.1926
 4959SOL     OW15054   2.619   6.122   6.706  0.0543  0.6713  0.3749
 4959SOL    HW115055   2.711   6.156   6.686  0.0199  0.5940  0.0749
 4959SOL    HW215056   2.552   6.192   6.681 -0.0288  0.3199 -0.4337
 4960SOL     OW15057   1.234   5.599   3.774  0.3142 -1.0823 -0.5805
 4960SOL    HW115058   1.314   5.655   3.750 -0.0648  0.1376  0.8807
 4960SOL    HW215059   1.247   5.559   3.864 -0.0075 -2.2917 -1.0559
 4961SOL     OW15060   2.755   3.705   3.099  0.1348  0.2274 -0.6575
 4961SOL    HW115061   2.701   3.785   3.072  0.4480  0.4770 -0.5560
 4961SOL    HW215062   2.816   3.679   3.025  0.3660  0.3681 -0.5148
 4962SOL     OW15063   7.611   1.780   6.836  0.0480 -0.2771  0.2311
 4962SOL    HW115064   7.583   1.829   6.919  1.0509  0.8255 -0.0586
 4962SOL    HW215065   7.678   1.835   6.786 -0.3916 -1.0178 -1.2161
 4963SOL     OW15066   1.919   1.489   5.589  0.6878  0.3966  0.1107
 4963SOL    HW115067   1.894   1.394   5.568  0.8225  0.5313 -0.6879
 4963SOL    HW215068   1.991   1.519   5.525 -1.3336  1.9652 -1.5472
 4964SOL     OW15069   2.318   1.578   4.313 -0.3685 -0.1740 -0.0065
 4964SOL    HW115070   2.364   1.593   4.400 -1.5392 -0.9538  0.7730
 4964SOL    HW215071   2.347   1.490   4.274  1.0515  0.7002 -1.0257
 4965SOL     OW15072   0.811   0.479   4.789  0.0127  0.1795 -0.2095
 4965SOL    HW115073   0.850   0.522   4.871  1.0366  0.3502 -0.7749
 4965SOL    HW215074   0.881   0.423   4.744 -0.9067 -0.9519 -0.2665
 4966SOL     OW15075   6.425   7.474   8.160 -0.0197 -0.5252 -0.4214
 4966SOL    HW115076   6.364   7.524   8.221  0.5408 -1.1642  0.6821
 4966SOL    HW215077   6.515   7.518   8.158 -0.5421  0.5921 -2.2776
 4967SOL     OW15078   0.103   3.621   4.670  0.5370  0.0067 -0.1643
 4967SOL    HW115079   0.175   3.659   4.729 -1.0719  0.9318  1.3254
 4967SOL    HW215080   0.054   3.696   4.625 -2.8378  0.0559  2.9868
 4968SOL     OW15081   4.006   6.076   1.535  0.0098 -0.9830  0.2005
 4968SOL    HW115082   4.017   5.978   1.518  0.0832 -0.8355 -0.6535
 4968SOL    HW215083   3.925   6.109   1.486  0.3700 -0.4888 -0.0652
 4969SOL     OW15084   1.620   7.755   1.800  0.2042 -0.2556 -0.1645
 4969SOL    HW115085   1.718   7.766   1.781  0.2997  0.1207  0.5189
 4969SOL    HW215086   1.608   7.714   1.890 -0.2788  1.4640  0.6046
 4970SOL     OW15087   2.113   7.534   0.921  0.8356 -0.0074 -0.3004
 4970SOL    HW115088   2.020   7.526   0.957 -0.2829  2.3144 -2.3502
 4970SOL    HW215089   2.154   7.620   0.952  2.2248 -0.8589  0.3309
 4971SOL     OW15090   6.522   2.166   6.094 -0.3923  0.3051  0.3261
 4971SOL    HW115091   6.527   2.230   6.018  0.1120 -0.8357 -0.6211
 4971SOL    HW215092   6.563   2.079   6.068  1.3597  0.3975  2.4429
 4972SOL     OW15093   2.816   2.215   1.762 -0.0827  0.4076  0.2827
 4972SOL    HW115094   2.750   2.257   1.700  0.9628  0.8088 -0.5975
 4972SOL    HW215095   2.803   2.116   1.763  0.6770  0.2508 -1.5759
 4973SOL     OW15096   3.980   8.830   5.179 -0.0750 -0.1388 -0.1721
 4973SOL    HW115097   3.919   8.753   5.199 -0.7897  0.3384 -0.4672
 4973SOL    HW215098   4.065   8.819   5.231 -1.3289  0.3904  2.1423
 4974SOL     OW15099   7.356   0.573   0.681 -0.5752  0.9087  0.1390
 4974SOL    HW115100   7.304   0.657   0.668  0.0508  1.1159 -1.2388
 4974SOL    HW215101   7.453   0.591   0.666 -0.2272  0.2651  1.4339
 4975SOL     OW15102   7.672   2.644   6.904 -0.4315 -0.0605  0.5736
 4975SOL    HW115103   7.704   2.638   6.809  0.4450  0.9796  0.7849
 4975SOL    HW215104   7.689   2.736   6.939  0.9800 -0.9406  2.3358
 4976SOL     OW15105   0.041   4.135   4.483  0.7536  0.4316  0.1125
 4976SOL    HW115106   0.074   4.219   4.439  2.3279  0.0039  0.4321
 4976SOL    HW215107   0.071   4.133   4.578 -1.2439  0.5701  0.7894
 4977SOL     OW15108   3.026   6.001   6.849  0.0692  0.1054  0.1880
 4977SOL    HW115109   2.965   6.052   6.787 -0.0724  0.5002  0.6459
 4977SOL    HW215110   2.981   5.916   6.877  0.1862 -0.1406 -0.3479
 4978SOL     OW15111   8.301   7.348   1.288  0.2015 -0.8845 -0.0830
 4978SOL    HW115112   8.352   7.433   1.306 -0.7831 -0.3441  0.2407
 4978SOL    HW215113   8.306   7.289   1.368 -0.2758 -0.5148  0.2252
 4979SOL     OW15114   8.155   7.477   6.666 -0.0057  0.0137 -0.0611
 4979SOL    HW115115   8.211   7.396   6.652  0.1112 -0.0108  0.5073
 4979SOL    HW215116   8.200   7.556   6.624  0.0970 -0.1350 -0.2335
 4980SOL     OW15117   0.026   7.932   1.671 -0.2023  0.3198 -0.1473
 4980SOL    HW115118   0.119   7.899   1.655  0.2155  1.2879  0.2525
 4980SOL    HW215119   0.025   8.032   1.669 -1.3902  0.3169 -0.9947
 4981SOL     OW15120   1.406   0.653   7.190 -0.4481  0.3771 -0.2621
 4981SOL    HW115121   1.345   0.702   7.253 -1.9246 -0.4940 -0.9591
 4981SOL    HW215122   1.414   0.558   7.219 -0.0954  0.2865 -0.6551
 4982SOL     OW15123   1.663   0.939   5.604  0.7794 -0.4836  0.2215
 4982SOL    HW115124   1.714   0.884   5.538  1.5463  0.9503 -0.4366
 4982SOL    HW215125   1.724   1.008   5.643  0.2807 -1.1391  2.2802
 4983SOL     OW15126   3.095   0.795   3.458  0.2463  0.4595 -0.2742
 4983SOL    HW115127   3.042   0.878   3.477  1.6786  1.5818 -0.9647
 4983SOL    HW215128   3.118   0.792   3.361 -1.6706 -1.9408 -0.7464
 4984SOL     OW15129   8.833   3.131   2.991 -0.2066  0.1660 -0.3530
 4984SOL    HW115130   8.772   3.110   2.914 -0.5680 -0.0320 -0.0137
 4984SOL    HW215131   8.875   3.221   2.977 -0.5312  0.2763 -0.6178
 4985SOL     OW15132   4.228   7.765   6.210 -0.1101 -0.0152  0.5911
 4985SOL    HW115133   4.266   7.838   6.265 -2.4712 -0.4968  3.0854
 4985SOL    HW215134   4.236   7.678   6.259 -0.3876 -0.8712 -0.8085
 4986SOL     OW15135   2.832   2.228   5.466  0.0866 -0.8271  0.1149
 4986SOL    HW115136   2.859   2.220   5.370  0.5901 -2.8013  0.3903
 4986SOL    HW215137   2.913   2.224   5.524 -0.3227 -0.8836  0.6856
 4987SOL     OW15138   1.540   3.250   1.196 -0.1634 -0.1003 -0.1575
 4987SOL    HW115139   1.527   3.160   1.155 -2.1074 -0.3627  0.9024
 4987SOL    HW215140   1.464   3.310   1.171  1.1896  1.3416 -0.9924
 4988SOL     OW15141   6.128   4.717   6.744  0.4162 -0.2744 -0.4952
 4988SOL    HW115142   6.187   4.644   6.709  0.9259  0.0227 -0.2664
 4988SOL    HW215143   6.034   4.701   6.714  0.3165 -1.6120  0.4270
 4989SOL     OW15144   6.658   0.494   4.875 -0.6099 -0.1289  0.1945
 4989SOL    HW115145   6.682   0.462   4.784 -1.9223 -0.8451  0.0889
 4989SOL    HW215146   6.583   0.559   4.869 -1.1786 -0.7156  0.8158
 4990SOL     OW15147   2.987   4.109   1.155 -0.1358  0.4770 -0.5597
 4990SOL    HW115148   2.968   4.197   1.110  1.4451  0.2993 -1.6716
 4990SOL    HW215149   2.976   4.120   1.254  1.8589  2.5040 -0.4728
 4991SOL     OW15150   2.929   6.424   7.757  0.1581 -0.0953 -0.2465
 4991SOL    HW115151   2.924   6.386   7.665 -0.2872 -0.5784 -0.0289
 4991SOL    HW215152   2.837   6.451   7.787 -0.1254 -2.2624  1.0062
 4992SOL     OW15153   6.837   0.429   7.163 -0.4163 -0.3852 -0.1417
 4992SOL    HW115154   6.759   0.368   7.174 -0.5187 -0.2071  0.1087
 4992SOL    HW215155   6.820   0.492   7.086 -0.3586 -0.5953 -0.3272
 4993SOL     OW15156   4.806   8.813   3.891 -0.0378 -0.4349  0.4245
 4993SOL    HW115157   4.827   8.715   3.886  0.6883 -0.2861  0.5816
 4993SOL    HW215158   4.827   8.847   3.983  1.7520  0.3301 -0.2311
 4994SOL     OW15159   4.640   8.666   1.584 -0.3124 -0.1303  0.1619
 4994SOL    HW115160   4.630   8.623   1.494 -2.0588  2.2509 -0.9133
 4994SOL    HW215161   4.735   8.688   1.601  0.2004 -1.6477 -0.5426
 4995SOL     OW15162   2.207   7.627   8.805 -0.1531 -0.2124  0.5918
 4995SOL    HW115163   2.195   7.716   8.760 -0.6154  0.9249  2.7958
 4995SOL    HW215164   2.298   7.592   8.785  0.1642  0.9306 -0.0725
 4996SOL     OW15165   2.696   5.391   4.072  0.1860  0.0144 -0.2501
 4996SOL    HW115166   2.773   5.346   4.028  0.7261 -0.5421  1.1823
 4996SOL    HW215167   2.723   5.420   4.164 -0.8651  1.1852 -0.2836
 4997SOL     OW15168   1.859   5.293   7.295 -0.1762  0.3253 -0.5806
 4997SOL    HW115169   1.881   5.196   7.284 -0.2375  0.5666 -3.5958
 4997SOL    HW215170   1.943   5.348   7.284 -0.3968  0.6845 -0.4935
 4998SOL     OW15171   5.480   5.037   0.505  0.0727  0.5884  0.2323
 4998SOL    HW115172   5.505   5.064   0.598 -0.3374  2.1889 -0.0892
 4998SOL    HW215173   5.382   5.049   0.492  0.0640 -0.0065 -0.2985
 4999SOL     OW15174   3.540   2.196   2.017  0.2720  0.1680 -0.2353
 4999SOL    HW115175   3.576   2.135   2.088  1.7282  1.8919  0.5947
 4999SOL    HW215176   3.548   2.290   2.048  1.4092  1.0251 -2.8989
 5000SOL     OW15177   8.306   8.615   5.789 -0.3302 -0.2307  0.1246
 5000SOL    HW115178   8.215   8.649   5.767  0.2655  2.1200  1.0270
 5000SOL    HW215179   8.325   8.631   5.886  2.1660  2.3366 -0.6389
 5001SOL     OW15180   8.137   6.655   3.976  0.0700 -0.4142  0.1646
 5001SOL    HW115181   8.231   6.627   3.998 -0.0300 -1.1416 -0.3046
 5001SOL    HW215182   8.140   6.735   3.916  0.3537  1.1171  2.1238
 5002SOL     OW15183   5.053   1.035   4.877  0.1306  0.3129 -0.5640
 5002SOL    HW115184   4.988   0.964   4.905  2.4261 -1.6588  0.0952
 5002SOL    HW215185   5.078   1.090   4.956 -0.6908  1.0611 -0.8145
 5003SOL     OW15186   0.974   5.410   6.507  0.0041 -0.2608  0.2840
 5003SOL    HW115187   0.905   5.337   6.511 -0.2696  0.0689  1.8904
 5003SOL    HW215188   0.958   5.476   6.580  1.1990  0.5821 -0.1861
 5004SOL     OW15189   3.068   0.005   0.410  0.0037  0.0290  0.1304
 5004SOL    HW115190   2.972   0.025   0.430 -0.9157 -2.0162 -1.8004
 5004SOL    HW215191   3.075  -0.084   0.365  2.7207  0.5799 -0.7231
 5005SOL     OW15192   1.112   8.225   2.260  0.1108  0.3119  0.4726
 5005SOL    HW115193   1.064   8.300   2.306  1.6228  1.3318  0.4700
 5005SOL    HW215194   1.059   8.141   2.269 -0.6765  0.9483  2.2001
 5006SOL     OW15195   8.423   5.805   2.253  0.2519  0.1116 -0.2831
 5006SOL    HW115196   8.393   5.889   2.299  2.3832  1.3153 -0.9609
 5006SOL    HW215197   8.343   5.756   2.218 -1.0361  2.0976 -0.2599
 5007SOL     OW15198   7.808   2.463   0.466 -0.2632  0.2384  0.2395
 5007SOL    HW115199   7.736   2.450   0.397 -1.0231  1.7734  0.7000
 5007SOL    HW215200   7.895   2.433   0.428 -1.3457 -3.4454  0.3136
 5008SOL     OW15201   3.187   6.275   6.133  0.2269 -0.3943  0.2967
 5008SOL    HW115202   3.095   6.236   6.138 -0.2984  0.7322 -0.0342
 5008SOL    HW215203   3.239   6.228   6.062 -0.8460  0.3732 -1.0509
 5009SOL     OW15204   8.232   5.043   7.893  0.3480  0.2093  0.1321
 5009SOL    HW115205   8.331   5.030   7.890  0.3177 -0.2813  0.9191
 5009SOL    HW215206   8.187   4.957   7.918 -0.0501  1.0412  2.5760
 5010SOL     OW15207   5.956   6.035   5.829 -0.0616  0.0575 -0.3420
 5010SOL    HW115208   5.928   6.118   5.877 -0.5536  1.0339 -2.2239
 5010SOL    HW215209   5.878   5.996   5.780  0.5711 -0.4565 -0.9710
 5011SOL     OW15210   6.639   4.256   4.868 -0.1056  0.2324 -0.1082
 5011SOL    HW115211   6.692   4.181   4.906  0.7108  0.7012 -0.2856
 5011SOL    HW215212   6.542   4.242   4.887  0.1198 -0.4337  0.5821
 5012SOL     OW15213   3.830   3.602   0.124  0.2910  0.5009  0.4595
 5012SOL    HW115214   3.825   3.502   0.130 -0.3399  0.5061  0.0744
 5012SOL    HW215215   3.857   3.639   0.213  2.9767 -0.1378  0.0099
 5013SOL     OW15216   8.088   1.470   8.331 -0.5180 -0.0727  0.0136
 5013SOL    HW115217   8.130   1.416   8.404 -1.9135  0.2129  1.0662
 5013SOL    HW215218   8.010   1.520   8.368 -0.9989  0.4090 -1.6021
 5014SOL     OW15219   0.802   5.280   2.752  0.6707  0.2550 -0.6491
 5014SOL    HW115220   0.791   5.284   2.852  0.9876 -1.6874 -0.5004
 5014SOL    HW215221   0.845   5.364   2.720  1.7622  0.3822  1.0268
 5015SOL     OW15222   2.684   2.659   7.794  0.1894 -0.7419 -0.8333
 5015SOL    HW115223   2.637   2.575   7.820  0.6090 -0.3680  1.2752
 5015SOL    HW215224   2.618   2.724   7.756 -0.4920 -1.2725 -0.5791
 5016SOL     OW15225   3.205   0.357   2.355  0.0632  0.4599 -0.0882
 5016SOL    HW115226   3.282   0.370   2.293  1.2837  1.7803  1.6014
 5016SOL    HW215227   3.171   0.263   2.347  1.0377  0.2135 -1.7375
 5017SOL     OW15228   0.134   6.532   4.758 -0.3173  0.1517  0.1752
 5017SOL    HW115229   0.062   6.531   4.827 -0.1733 -0.7521  0.3274
 5017SOL    HW215230   0.093   6.527   4.667 -0.5299  1.8514  0.1538
 5018SOL     OW15231   5.204   6.161   4.998  0.2811  0.1206 -0.4260
 5018SOL    HW115232   5.242   6.251   4.978  1.0024 -0.1921 -0.4993
 5018SOL    HW215233   5.164   6.122   4.915  1.1943 -0.1943 -0.7361
 5019SOL     OW15234   6.947   2.588   8.856 -0.2566 -0.2867  0.8004
 5019SOL    HW115235   6.904   2.523   8.919  3.2231 -1.1213  2.5370
 5019SOL    HW215236   7.002   2.538   8.789 -0.2820  0.7921 -0.0566
 5020SOL     OW15237   5.535   1.197   1.085 -0.9526  0.8336  0.1373
 5020SOL    HW115238   5.460   1.207   1.020 -0.0727  0.5033 -0.9573
 5020SOL    HW215239   5.564   1.288   1.116 -0.2088  1.1243 -1.3259
 5021SOL     OW15240   0.343   5.981   1.707 -0.0313 -0.2331 -0.4150
 5021SOL    HW115241   0.315   5.895   1.666  1.6104 -0.4904 -1.0985
 5021SOL    HW215242   0.362   6.048   1.635 -0.9810  0.6091  0.0992
 5022SOL     OW15243   2.076   5.251   1.910 -0.1868  0.0290 -0.1542
 5022SOL    HW115244   2.077   5.342   1.952  2.1337  0.1435 -0.3168
 5022SOL    HW215245   2.011   5.193   1.957 -1.5471  1.6927  0.1121
 5023SOL     OW15246   1.036   8.066   0.476  0.2607  0.0673  0.5163
 5023SOL    HW115247   1.063   8.072   0.572  2.4437 -0.7394  0.0166
 5023SOL    HW215248   1.105   8.014   0.425 -1.4244 -0.5312 -1.2871
 5024SOL     OW15249   0.974   5.351   1.604  0.0161 -0.0222  0.5576
 5024SOL    HW115250   0.906   5.310   1.544 -0.9928  1.1192  0.8819
 5024SOL    HW215251   1.063   5.350   1.559 -0.7557  1.0502 -1.1151
 5025SOL     OW15252   7.391   2.299   4.073  0.2957 -0.0145  1.0932
 5025SOL    HW115253   7.481   2.255   4.078  0.5542  0.0156 -1.7408
 5025SOL    HW215254   7.351   2.305   4.165  2.6028 -1.1990  2.2440
 5026SOL     OW15255   6.248   0.547   3.644 -0.4345  0.2218 -0.8496
 5026SOL    HW115256   6.152   0.549   3.616  0.3410  0.8435 -3.7299
 5026SOL    HW215257   6.272   0.636   3.684 -1.1585 -0.1401  0.4634
 5027SOL     OW15258   5.820   1.662   3.770 -0.4169 -0.1277 -0.6318
 5027SOL    HW115259   5.912   1.623   3.764 -0.3226 -0.4108  1.5132
 5027SOL    HW215260   5.817   1.728   3.846 -2.1456 -0.6936 -0.1585
 5028SOL     OW15261   7.237   2.039   5.125  0.2210  0.2042 -0.0298
 5028SOL    HW115262   7.175   1.964   5.104 -1.6176  1.7587 -0.4706
 5028SOL    HW215263   7.307   2.045   5.054 -0.2675 -0.4248 -0.5740
 5029SOL     OW15264   1.049   4.003   1.915  0.7121 -0.6729 -0.3039
 5029SOL    HW115265   1.123   4.023   1.850 -0.1132 -0.2035 -1.1255
 5029SOL    HW215266   1.023   3.907   1.907  0.9899 -0.7550 -0.2548
 5030SOL     OW15267   1.206   4.629   4.451 -0.0879 -0.1369  0.2656
 5030SOL    HW115268   1.266   4.708   4.440 -0.8197  0.2440 -1.4163
 5030SOL    HW215269   1.233   4.557   4.387  2.0087 -2.2951  3.2978
 5031SOL     OW15270   7.600   1.114   8.234  0.3460  0.5026 -0.2059
 5031SOL    HW115271   7.676   1.117   8.298  0.4963  2.5881 -0.4029
 5031SOL    HW215272   7.532   1.183   8.259 -1.0321 -0.6378 -0.6121
 5032SOL     OW15273   2.935   6.167   0.001  0.6853 -0.1600 -0.1382
 5032SOL    HW115274   3.006   6.097   0.011  0.9045  0.0882  0.0585
 5032SOL    HW215275   2.951   6.219  -0.082 -1.8674 -3.0631 -2.6974
 5033SOL     OW15276   1.506   1.852   1.796 -0.2835  0.0829 -0.4174
 5033SOL    HW115277   1.601   1.837   1.767 -0.0448  1.2630 -0.2941
 5033SOL    HW215278   1.452   1.770   1.778  0.1148  0.3280 -3.1045
 5034SOL     OW15279   7.298   1.505   0.329 -0.1162  0.3889  0.0125
 5034SOL    HW115280   7.346   1.477   0.246 -0.6790  0.3362 -0.3012
 5034SOL    HW215281   7.364   1.533   0.398  0.6823 -3.6343  1.0998
 5035SOL     OW15282   5.908   4.076   4.980  0.3187  0.0429 -0.4509
 5035SOL    HW115283   5.814   4.045   4.995  0.5390  0.4400  2.2103
 5035SOL    HW215284   5.908   4.174   4.964  0.2515 -0.0645 -1.1537
 5036SOL     OW15285   1.168   6.157   7.487  0.3798 -0.2724 -0.0854
 5036SOL    HW115286   1.144   6.060   7.483 -1.7489  0.2412 -1.7211
 5036SOL    HW215287   1.236   6.177   7.416  0.0820 -0.3784 -0.3998
 5037SOL     OW15288   0.000   7.138   8.640  0.0476 -0.0824 -0.7301
 5037SOL    HW115289  -0.060   7.203   8.688  0.9658 -0.5234  1.1184
 5037SOL    HW215290  -0.030   7.129   8.545 -1.3469  1.4839 -0.4936
 5038SOL     OW15291   0.472   7.632   8.628 -0.1847 -0.0520  0.1756
 5038SOL    HW115292   0.493   7.646   8.725 -1.6549 -1.2162  0.6979
 5038SOL    HW215293   0.386   7.581   8.620 -0.3667  0.5116 -1.7591
 5039SOL     OW15294   3.528   5.199   1.211  0.4722 -0.3814 -0.2245
 5039SOL    HW115295   3.606   5.235   1.160 -0.0044 -0.6215 -1.1394
 5039SOL    HW215296   3.534   5.230   1.306  0.9148  0.7875 -0.6178
 5040SOL     OW15297   8.140   4.667   4.310 -0.1394 -0.3942 -0.4174
 5040SOL    HW115298   8.178   4.745   4.259  2.0835 -1.3405 -0.2940
 5040SOL    HW215299   8.056   4.696   4.356  1.1232  2.2469  0.4379
 5041SOL     OW15300   0.824   7.102   4.777  0.2245 -0.1830  0.4888
 5041SOL    HW115301   0.896   7.172   4.782 -0.5356  0.5454  1.9882
 5041SOL    HW215302   0.848   7.025   4.835  0.3331 -0.4696  0.0656
 5042SOL     OW15303   5.160   6.285   5.483  0.4163 -0.0249 -0.4317
 5042SOL    HW115304   5.065   6.254   5.474  0.9304 -1.5161 -0.9927
 5042SOL    HW215305   5.179   6.353   5.412 -0.3605  0.6433 -0.0144
 5043SOL     OW15306   1.127   8.788   1.600 -0.2082 -0.1795 -0.2487
 5043SOL    HW115307   1.195   8.721   1.627  1.5103  1.1282 -1.1129
 5043SOL    HW215308   1.085   8.828   1.682  0.1951 -0.8712  0.3061
 5044SOL     OW15309   0.342   4.198   8.332  0.4794  0.4269  0.2820
 5044SOL    HW115310   0.441   4.208   8.330  0.3676  1.7226  0.6436
 5044SOL    HW215311   0.317   4.111   8.290  1.8543 -0.6150  1.5052
 5045SOL     OW15312   3.214   5.722   7.200  0.5271  0.0006  0.1199
 5045SOL    HW115313   3.135   5.668   7.172  1.0394 -1.2641  1.0229
 5045SOL    HW215314   3.216   5.731   7.299  0.2708  2.0351 -0.0077
 5046SOL     OW15315   6.157   7.655   1.817  0.2651  0.3949  0.4054
 5046SOL    HW115316   6.085   7.592   1.789 -0.2951  1.5713 -0.8891
 5046SOL    HW215317   6.231   7.654   1.749  1.3357 -0.5117  1.5197
 5047SOL     OW15318   2.504   6.769   3.074  0.9050  0.0996 -0.1485
 5047SOL    HW115319   2.549   6.857   3.056  2.0709 -0.0597  1.6952
 5047SOL    HW215320   2.503   6.752   3.173 -1.6558 -0.7734 -0.2569
 5048SOL     OW15321   5.305   5.669   1.868 -0.2068  0.1337 -0.1986
 5048SOL    HW115322   5.308   5.679   1.768 -3.1645  0.6855 -0.3166
 5048SOL    HW215323   5.321   5.573   1.891  0.4178 -0.0217 -1.1865
 5049SOL     OW15324   5.941   4.131   2.147  1.0212  0.4570 -0.1799
 5049SOL    HW115325   6.016   4.125   2.081  0.0689  1.8368 -1.4444
 5049SOL    HW215326   5.942   4.221   2.191  0.5377  0.2304  0.3055
 5050SOL     OW15327   3.050   8.482   7.185  0.3164  0.2251 -0.1008
 5050SOL    HW115328   3.044   8.384   7.167  0.6087 -0.0081  0.9676
 5050SOL    HW215329   3.015   8.533   7.107  1.2913 -0.7023 -1.1752
 5051SOL     OW15330   0.773   6.516   1.279 -0.1154  0.6058  0.1949
 5051SOL    HW115331   0.708   6.556   1.344 -0.4132 -1.2436  1.1190
 5051SOL    HW215332   0.733   6.516   1.188 -2.1806 -1.8644  0.9711
 5052SOL     OW15333   6.412   3.008   0.026 -0.0301 -0.3071 -0.0488
 5052SOL    HW115334   6.450   3.003   0.118 -2.1462 -0.1882  0.8958
 5052SOL    HW215335   6.365   3.095   0.014  2.1361  0.7004 -2.1154
 5053SOL     OW15336   4.743   7.285   0.462 -0.3238  0.0537  0.0764
 5053SOL    HW115337   4.834   7.251   0.485  0.7401  2.4499 -0.3670
 5053SOL    HW215338   4.750   7.368   0.408 -2.7587  1.1867  1.3108
 5054SOL     OW15339   0.678   8.604   4.901  0.2503 -0.2597  0.7509
 5054SOL    HW115340   0.587   8.642   4.885  0.4763 -0.3224 -0.9734
 5054SOL    HW215341   0.670   8.513   4.941 -0.5817 -1.0971 -1.1564
 5055SOL     OW15342   2.530   7.438   1.950  0.7173 -0.0847  0.0297
 5055SOL    HW115343   2.440   7.461   1.986  0.5042  1.4602 -1.3889
 5055SOL    HW215344   2.597   7.440   2.025  0.0862  1.7466  0.5956
 5056SOL     OW15345   1.042   6.904   3.416  0.0010 -0.2122 -0.1701
 5056SOL    HW115346   1.058   6.879   3.320 -2.6440 -0.1885 -0.6918
 5056SOL    HW215347   0.966   6.969   3.421  0.9220  0.7889  1.8787
 5057SOL     OW15348   0.871   8.664   4.141  0.4946 -0.4514 -0.3862
 5057SOL    HW115349   0.852   8.722   4.062  1.8215  1.2733  0.4857
 5057SOL    HW215350   0.829   8.574   4.127 -2.6356  0.9977 -1.3197
 5058SOL     OW15351   5.750   0.320   2.110  0.6308  0.2314  0.2058
 5058SOL    HW115352   5.741   0.262   2.029  1.3603 -0.1430  0.3772
 5058SOL    HW215353   5.755   0.262   2.191 -1.2244  0.6401  0.6449
 5059SOL     OW15354   1.667   4.446   6.069  0.1821 -0.0050 -0.4991
 5059SOL    HW115355   1.583   4.394   6.087  0.1867  0.1923  0.1042
 5059SOL    HW215356   1.717   4.459   6.154 -1.2977  3.6098  0.0054
 5060SOL     OW15357   1.937   0.442   3.744 -0.6193  0.1611  0.5463
 5060SOL    HW115358   1.975   0.491   3.666 -1.1731 -0.9571 -0.4417
 5060SOL    HW215359   1.914   0.508   3.816 -1.6207  1.4062 -0.8632
 5061SOL     OW15360   8.727   3.928   4.853  0.2980 -0.2472 -0.3682
 5061SOL    HW115361   8.630   3.907   4.843 -0.0773  1.1425  0.2013
 5061SOL    HW215362   8.774   3.911   4.766 -0.3400 -1.3910 -0.5176
 5062SOL     OW15363   8.487   4.327   8.423  0.1758 -0.6152 -0.5989
 5062SOL    HW115364   8.521   4.323   8.516 -0.2464  2.1141 -0.2293
 5062SOL    HW215365   8.406   4.268   8.414 -1.4260  1.0736  1.5895
 5063SOL     OW15366   7.876   0.066   2.658 -0.5872  0.2442 -0.0534
 5063SOL    HW115367   7.832   0.154   2.674  2.1875  1.6812  0.2273
 5063SOL    HW215368   7.877   0.013   2.743  0.5054  1.3367  0.6566
 5064SOL     OW15369   8.428   0.639   7.931  0.3036 -0.6243  0.3140
 5064SOL    HW115370   8.348   0.591   7.895 -0.0087 -0.0654  0.2463
 5064SOL    HW215371   8.468   0.695   7.858 -0.1034  0.2157  0.7219
 5065SOL     OW15372   6.660   7.903   6.883  0.5428 -0.0946  0.3339
 5065SOL    HW115373   6.578   7.900   6.826  0.5767 -0.4085  0.2960
 5065SOL    HW215374   6.736   7.944   6.831  0.5231 -0.2037  0.2194
 5066SOL     OW15375   2.210   0.795   3.905 -0.0320  0.6879 -0.0238
 5066SOL    HW115376   2.221   0.735   3.825  1.5032 -0.5535  1.0659
 5066SOL    HW215377   2.298   0.804   3.952 -0.8712  1.5569  1.4338
 5067SOL     OW15378   1.410   4.764   7.730 -0.5933  0.1001  0.4249
 5067SOL    HW115379   1.423   4.666   7.722  0.3312  0.2712 -0.4492
 5067SOL    HW215380   1.498   4.811   7.720 -0.9614  1.0011  1.2101
 5068SOL     OW15381   1.804   4.790   3.128  0.2872 -0.3208 -0.5783
 5068SOL    HW115382   1.834   4.877   3.091 -0.6535  0.7624  1.0430
 5068SOL    HW215383   1.876   4.751   3.186  0.4555 -0.2812 -0.7612
 5069SOL     OW15384   4.411   5.433   8.386 -0.2553  0.1619  0.3001
 5069SOL    HW115385   4.448   5.393   8.471 -1.1655 -0.7521  0.2899
 5069SOL    HW215386   4.486   5.449   8.322  0.4884  1.1482  1.3770
 5070SOL     OW15387   6.338   4.740   1.289 -0.5227 -0.0356 -0.5004
 5070SOL    HW115388   6.429   4.714   1.322 -0.9032 -0.0327  0.5945
 5070SOL    HW215389   6.342   4.834   1.254 -0.1980  0.1396 -0.0192
 5071SOL     OW15390   8.395   2.101   5.121 -0.3792 -0.1872 -0.0467
 5071SOL    HW115391   8.428   2.083   5.213  1.3397 -0.9310 -0.7500
 5071SOL    HW215392   8.351   2.019   5.084 -1.3361  0.2038  0.2035
 5072SOL     OW15393   1.334   8.313   5.792 -0.3151 -0.1639 -0.5124
 5072SOL    HW115394   1.324   8.359   5.703 -0.8399 -0.3162 -0.5352
 5072SOL    HW215395   1.314   8.378   5.865 -0.7908 -0.2716 -0.5376
 5073SOL     OW15396   6.182   4.738   8.047  0.0148  0.4699 -0.0943
 5073SOL    HW115397   6.230   4.729   8.134  1.0350  1.9370 -0.4633
 5073SOL    HW215398   6.127   4.822   8.048  0.1304  0.5607 -0.9000
 5074SOL     OW15399   5.709   2.666   2.925 -0.0358  0.2345  0.2854
 5074SOL    HW115400   5.734   2.721   3.004  2.4356  2.3233 -1.7662
 5074SOL    HW215401   5.619   2.695   2.892 -0.6893 -0.0406  1.7382
 5075SOL     OW15402   1.004   0.812   1.529 -0.4676  0.2091  0.3671
 5075SOL    HW115403   1.041   0.735   1.582  1.6394  0.9113  0.0043
 5075SOL    HW215404   1.005   0.789   1.432 -1.8218 -0.0621  0.3955
 5076SOL     OW15405   6.990   7.880   3.767 -0.0118 -0.3673 -0.0336
 5076SOL    HW115406   7.063   7.884   3.699 -0.6973  0.6716 -0.7313
 5076SOL    HW215407   6.927   7.806   3.743  0.0442 -0.3546 -0.2255
 5077SOL     OW15408   1.867   4.146   2.121  0.5117 -0.7104 -0.1145
 5077SOL    HW115409   1.879   4.173   2.025  0.7617 -0.8326 -0.1199
 5077SOL    HW215410   1.870   4.228   2.178  0.1320 -0.6124 -0.2291
 5078SOL     OW15411   3.324   1.066   5.147 -0.2731  0.2803 -0.1455
 5078SOL    HW115412   3.351   1.162   5.147 -0.4593  0.3762  1.6499
 5078SOL    HW215413   3.231   1.058   5.111 -0.4751  0.8520  0.2319
 5079SOL     OW15414   0.072   7.782   5.150  0.2790  0.0640  0.1838
 5079SOL    HW115415   0.156   7.754   5.105  0.1764  0.1212 -0.0458
 5079SOL    HW215416   0.057   7.880   5.137  1.1110  0.4385  1.7665
 5080SOL     OW15417   7.244   2.155   6.658 -0.5960 -0.2107  0.5492
 5080SOL    HW115418   7.183   2.235   6.660 -1.0310 -0.5440  0.8880
 5080SOL    HW215419   7.335   2.183   6.628 -0.9296  0.2840 -0.0185
 5081SOL     OW15420   5.533   2.821   4.334  0.2409 -0.3626 -0.4148
 5081SOL    HW115421   5.532   2.844   4.431  0.6994 -0.5948 -0.3517
 5081SOL    HW215422   5.624   2.838   4.297  0.1503 -0.5633 -0.7339
 5082SOL     OW15423   0.402   4.398   1.647  0.0119  0.2315  0.1682
 5082SOL    HW115424   0.465   4.346   1.705 -0.5204 -0.9694 -0.2844
 5082SOL    HW215425   0.375   4.482   1.694  0.4585 -0.1751  1.1808
 5083SOL     OW15426   3.016   4.850   0.203  0.0514 -0.1844  0.2148
 5083SOL    HW115427   2.961   4.921   0.246  1.0210  1.5771 -1.2863
 5083SOL    HW215428   2.957   4.778   0.168 -0.9793 -0.0605  1.6517
 5084SOL     OW15429   2.230   6.947   1.899  0.8482  0.3712 -0.0799
 5084SOL    HW115430   2.142   6.994   1.906  0.4031 -0.3753 -0.4782
 5084SOL    HW215431   2.215   6.855   1.861  1.5465 -0.4662  1.5520
 5085SOL     OW15432   1.920   0.266   5.338 -0.3509 -0.0692 -0.3461
 5085SOL    HW115433   1.979   0.236   5.413 -3.2172 -1.9159  1.3790
 5085SOL    HW215434   1.886   0.358   5.357 -0.9020 -0.4495  0.5784
 5086SOL     OW15435   8.700   3.789   6.929  0.1949  0.2710  0.2179
 5086SOL    HW115436   8.794   3.759   6.943  0.7352  0.9261 -1.7072
 5086SOL    HW215437   8.690   3.884   6.960 -0.0963 -0.0717  1.2350
 5087SOL     OW15438   8.409   4.934   0.799 -0.2081  0.9322 -0.9221
 5087SOL    HW115439   8.381   4.877   0.722 -2.4011  1.4457 -0.5556
 5087SOL    HW215440   8.457   4.877   0.866 -2.1501 -0.4958 -0.6606
 5088SOL     OW15441   2.460   5.259   1.474  0.7180 -0.0176  0.1109
 5088SOL    HW115442   2.422   5.217   1.391 -0.2523 -0.6275  0.8455
 5088SOL    HW215443   2.394   5.251   1.549  0.8894  2.0080  0.5367
 5089SOL     OW15444   5.743   5.615   7.111 -0.0239  0.1344 -0.6538
 5089SOL    HW115445   5.677   5.648   7.179  0.9537  2.0018 -0.5646
 5089SOL    HW215446   5.697   5.606   7.023 -0.6646  0.3089 -0.3483
 5090SOL     OW15447   3.315   4.611   5.714  0.0709  0.3931  0.1196
 5090SOL    HW115448   3.317   4.678   5.641  2.4230  2.2863  1.7714
 5090SOL    HW215449   3.350   4.523   5.680 -1.9108  0.2502 -1.7557
 5091SOL     OW15450   6.655   8.630   1.297  0.1827  0.0309 -0.0863
 5091SOL    HW115451   6.655   8.608   1.200  1.6898  0.3621 -0.2008
 5091SOL    HW215452   6.748   8.621   1.333 -0.7450 -2.8006  1.9958
 5092SOL     OW15453   0.320   4.713   7.678 -0.0285 -0.0845  0.2100
 5092SOL    HW115454   0.402   4.751   7.720  0.1780 -0.9691  0.6217
 5092SOL    HW215455   0.239   4.751   7.722  0.1480  0.8190 -0.2187
 5093SOL     OW15456   1.525   0.100   2.366  0.0373  0.0161  0.0197
 5093SOL    HW115457   1.604   0.136   2.415  1.2977 -1.8658 -0.5447
 5093SOL    HW215458   1.443   0.112   2.422  0.8530  1.1541  1.0140
 5094SOL     OW15459   8.147   7.371   0.192 -0.0758  0.5937  0.3300
 5094SOL    HW115460   8.226   7.419   0.228  1.2055 -0.3857 -1.0559
 5094SOL    HW215461   8.131   7.288   0.245 -0.5736  1.0936  0.9824
 5095SOL     OW15462   2.275   2.683   7.954 -0.4092  0.0473 -0.5783
 5095SOL    HW115463   2.291   2.589   7.926  1.4892  0.1591 -0.0178
 5095SOL    HW215464   2.307   2.745   7.882  0.1859  0.2725 -0.1325
 5096SOL     OW15465   2.916   7.263   8.436  0.5125 -0.5013  0.3776
 5096SOL    HW115466   2.943   7.270   8.532  0.2212 -3.2376  0.7338
 5096SOL    HW215467   2.829   7.310   8.422  0.4709 -0.2328  1.4757
 5097SOL     OW15468   3.645   3.481   7.827 -0.3442  0.0325 -0.1361
 5097SOL    HW115469   3.619   3.517   7.916  1.4925  0.8046  0.1438
 5097SOL    HW215470   3.723   3.418   7.838 -0.9649 -0.9459 -1.0638
 5098SOL     OW15471   6.886   4.804   5.123  0.3838 -0.5706 -0.4709
 5098SOL    HW115472   6.832   4.759   5.052  0.3540  0.1687 -0.9306
 5098SOL    HW215473   6.870   4.759   5.211  0.5576 -1.6003 -0.9578
 5099SOL     OW15474   7.260   6.473   2.721 -1.1529 -0.3629  0.0388
 5099SOL    HW115475   7.232   6.502   2.629 -0.9595 -0.7102 -0.1334
 5099SOL    HW215476   7.189   6.416   2.762 -0.9917 -0.6951 -0.1341
 5100SOL     OW15477   3.931   4.589   8.764  0.4493  0.2654 -0.3843
 5100SOL    HW115478   3.941   4.540   8.851 -1.3632  0.1237 -0.2145
 5100SOL    HW215479   3.935   4.523   8.688 -3.3633 -0.5153 -0.0971
 5101SOL     OW15480   5.447   2.288   1.900 -0.2913 -0.2751  0.1339
 5101SOL    HW115481   5.438   2.374   1.849 -0.3653  0.2688  1.0513
 5101SOL    HW215482   5.498   2.223   1.844 -1.8143 -0.2813 -1.3344
 5102SOL     OW15483   6.983   2.033   1.649 -0.2466  0.3725  0.1134
 5102SOL    HW115484   6.989   2.031   1.749  0.6096 -1.5429  0.0551
 5102SOL    HW215485   7.074   2.029   1.609 -0.6524 -0.8132 -0.7456
 5103SOL     OW15486   0.910   6.540   2.287  0.3908 -0.0598 -1.2580
 5103SOL    HW115487   0.844   6.577   2.353  0.4573 -0.3934 -1.0006
 5103SOL    HW215488   0.982   6.607   2.270 -1.1449  1.1868 -3.1890
 5104SOL     OW15489   1.600   8.533   0.262  0.3218 -0.0151  0.2130
 5104SOL    HW115490   1.529   8.525   0.331  0.1547 -1.1999 -0.0759
 5104SOL    HW215491   1.690   8.528   0.307  0.2175 -1.1498  0.3297
 5105SOL     OW15492   4.988   7.886   5.235  0.1672  0.6928  0.0504
 5105SOL    HW115493   4.958   7.791   5.247 -1.1460  1.2991  2.1213
 5105SOL    HW215494   5.088   7.890   5.245  0.1854 -0.4183  0.4671
 5106SOL     OW15495   5.422   2.555   5.644 -0.1023 -0.2082 -0.6789
 5106SOL    HW115496   5.373   2.546   5.730  1.0750  1.5698  0.2193
 5106SOL    HW215497   5.478   2.638   5.645  1.4572 -1.1559 -2.3900
 5107SOL     OW15498   8.271   2.621   4.132 -0.1222  0.2096  0.5420
 5107SOL    HW115499   8.189   2.564   4.130  0.5900 -0.9448  2.1233
 5107SOL    HW215500   8.262   2.690   4.204  0.8897 -0.9740  1.8763
 5108SOL     OW15501   6.213   7.870   8.277 -0.0062  0.6495  0.1746
 5108SOL    HW115502   6.273   7.847   8.200 -0.4404  0.3895 -0.0899
 5108SOL    HW215503   6.257   7.940   8.333  0.9162 -0.1070  0.4378
 5109SOL     OW15504   5.683   5.388   0.169 -0.1863 -0.2333  0.0766
 5109SOL    HW115505   5.623   5.409   0.092 -0.8615  1.2890  0.9621
 5109SOL    HW215506   5.700   5.290   0.172  0.0454 -0.3114 -2.1210
 5110SOL     OW15507   5.252   4.282   2.275  0.6547  0.1521  0.8630
 5110SOL    HW115508   5.170   4.312   2.226  1.3120  0.0286 -0.3616
 5110SOL    HW215509   5.330   4.337   2.246  1.7573 -2.1354 -0.8864
 5111SOL     OW15510   4.124   2.440   2.561  0.0297  0.5264  1.0654
 5111SOL    HW115511   4.046   2.386   2.593  1.5224 -0.6789  2.7845
 5111SOL    HW215512   4.192   2.380   2.520  0.7640  1.3839  0.9956
 5112SOL     OW15513   5.683   5.151   1.507  0.3158 -0.3773  0.2008
 5112SOL    HW115514   5.595   5.187   1.539  0.5059  0.8215 -0.5571
 5112SOL    HW215515   5.681   5.051   1.509 -0.8880 -0.3634  0.6464
 5113SOL     OW15516   7.154   3.423   4.452  0.2767  0.0580  0.0080
 5113SOL    HW115517   7.218   3.450   4.525  0.3351 -0.5378  0.1789
 5113SOL    HW215518   7.154   3.324   4.443 -0.4499  0.0716 -0.1620
 5114SOL     OW15519   3.655   3.933   2.321  0.5917 -0.2036 -0.2315
 5114SOL    HW115520   3.658   3.839   2.353  1.1587 -0.6738 -1.5750
 5114SOL    HW215521   3.566   3.974   2.343 -0.0282 -1.3714 -0.5188
 5115SOL     OW15522   4.920   4.718   0.890  0.0222  0.5999  0.3703
 5115SOL    HW115523   5.016   4.713   0.862  0.7112  0.2637  2.6563
 5115SOL    HW215524   4.890   4.814   0.889 -0.2124  0.5819 -1.9968
 5116SOL     OW15525   4.153   7.914   7.628 -0.2485 -0.1540  0.0081
 5116SOL    HW115526   4.183   7.900   7.722  0.6955 -0.2088 -0.2903
 5116SOL    HW215527   4.132   7.825   7.586 -2.5153 -0.0171  0.7281
 5117SOL     OW15528   8.519   4.071   1.215 -0.0696 -0.1219 -0.2276
 5117SOL    HW115529   8.499   4.034   1.125  0.1331  0.2067 -0.4107
 5117SOL    HW215530   8.510   4.170   1.213  1.1333  0.0037 -0.2156
 5118SOL     OW15531   5.841   5.447   8.255 -0.3829 -0.6224 -0.3479
 5118SOL    HW115532   5.896   5.448   8.171 -0.5678 -0.8639 -0.4752
 5118SOL    HW215533   5.882   5.383   8.320 -0.6548 -1.0015 -0.5433
 5119SOL     OW15534   0.128   4.347   8.248  0.6089  0.5328  0.1455
 5119SOL    HW115535   0.042   4.326   8.295  0.1290  2.4817  0.2142
 5119SOL    HW215536   0.202   4.298   8.292 -0.1902  0.3788  1.3703
 5120SOL     OW15537   6.708   0.721   4.309  0.7232  0.0687  0.0655
 5120SOL    HW115538   6.800   0.736   4.272  1.2965 -2.1728  0.4288
 5120SOL    HW215539   6.663   0.648   4.258 -0.3623  0.2452  0.7344
 5121SOL     OW15540   2.403   4.479   2.978 -0.4398  0.1217  0.1649
 5121SOL    HW115541   2.437   4.434   2.895 -0.4138 -0.3886  0.4523
 5121SOL    HW215542   2.328   4.540   2.953  1.1144  1.8391 -0.5907
 5122SOL     OW15543   0.746   1.725   3.971 -0.0019  0.2436 -0.2110
 5122SOL    HW115544   0.717   1.762   4.059  1.3883  1.1889 -0.1130
 5122SOL    HW215545   0.705   1.635   3.957  1.8087 -1.1735  2.6622
 5123SOL     OW15546   0.339   5.759   1.492  0.7586 -0.2122  0.2909
 5123SOL    HW115547   0.245   5.765   1.527  0.0834 -2.0687 -1.0053
 5123SOL    HW215548   0.352   5.827   1.420  0.9246  1.0491  1.4751
 5124SOL     OW15549   1.614   7.223   3.083 -0.0848  0.8239 -0.2096
 5124SOL    HW115550   1.625   7.264   3.174  0.2714  0.8729 -0.2751
 5124SOL    HW215551   1.642   7.127   3.087  1.8935  1.3339 -0.7296
 5125SOL     OW15552   7.781   7.170   7.161 -0.3991 -0.5814 -0.3430
 5125SOL    HW115553   7.776   7.222   7.246 -0.0991  1.6243 -1.6009
 5125SOL    HW215554   7.871   7.127   7.153 -0.3941 -0.7215  0.4047
 5126SOL     OW15555   0.436   1.866   1.538  0.0432 -0.3294  0.0617
 5126SOL    HW115556   0.365   1.866   1.608 -1.2670 -0.3195 -1.2142
 5126SOL    HW215557   0.486   1.952   1.541 -1.6876  0.7377 -0.6376
 5127SOL     OW15558   1.154   7.714   7.087  0.0182  0.0583  0.5378
 5127SOL    HW115559   1.219   7.660   7.139 -0.2892  0.9274  1.8619
 5127SOL    HW215560   1.193   7.736   6.997  0.9414 -0.6646  0.7537
 5128SOL     OW15561   8.306   1.758   3.862 -0.1185  0.6378 -0.0792
 5128SOL    HW115562   8.360   1.762   3.778  1.1309  2.0340  0.7404
 5128SOL    HW215563   8.364   1.780   3.940 -1.1842 -0.9042  1.2182
 5129SOL     OW15564   3.991   2.971   4.930 -0.3379 -0.5909 -0.2942
 5129SOL    HW115565   4.029   2.894   4.980  0.7800 -0.4581 -0.9016
 5129SOL    HW215566   3.892   2.973   4.941 -0.3636 -2.0190 -0.1567
 5130SOL     OW15567   1.849   2.184   6.922  0.2572  0.6525 -0.0288
 5130SOL    HW115568   1.782   2.190   6.997  0.4916  0.6862  0.1798
 5130SOL    HW215569   1.814   2.124   6.851  0.8339 -0.8979  0.9507
 5131SOL     OW15570   2.135   4.085   2.341  0.0165 -0.5961  0.5133
 5131SOL    HW115571   2.175   4.173   2.316  1.1666 -1.1998  0.1419
 5131SOL    HW215572   2.062   4.099   2.408  0.2339  0.6218  0.5189
 5132SOL     OW15573   2.173   1.037   1.386 -0.2448 -0.0016 -0.0023
 5132SOL    HW115574   2.241   1.050   1.459  0.9916 -2.1548 -0.6949
 5132SOL    HW215575   2.189   1.104   1.313  1.4949 -0.8009 -0.3915
 5133SOL     OW15576   5.015   5.427   5.861  0.6314  0.2756  0.4951
 5133SOL    HW115577   5.068   5.343   5.865  1.5488  0.8232  0.1469
 5133SOL    HW215578   4.930   5.415   5.913  0.9982 -0.6757  0.9087
 5134SOL     OW15579   1.390   6.255   0.383 -0.1277  0.0972 -0.2768
 5134SOL    HW115580   1.468   6.269   0.322 -0.0756 -1.4008 -0.6050
 5134SOL    HW215581   1.306   6.247   0.329 -0.3010  0.2529 -0.0324
 5135SOL     OW15582   8.210   3.757   3.192  0.0238  0.0593 -0.5111
 5135SOL    HW115583   8.214   3.658   3.210 -0.2322  0.2593  0.7093
 5135SOL    HW215584   8.227   3.807   3.276 -0.9712  1.0620 -0.8868
 5136SOL     OW15585   0.378   5.215   8.757  0.1642  0.1618 -0.1683
 5136SOL    HW115586   0.345   5.129   8.718 -0.9418 -0.3247  1.7148
 5136SOL    HW215587   0.340   5.291   8.705 -1.2689 -0.4608 -0.0798
 5137SOL     OW15588   6.576   3.113   3.736  0.4975  0.2073  0.5897
 5137SOL    HW115589   6.612   3.032   3.690  0.0889  0.9512 -1.0875
 5137SOL    HW215590   6.651   3.177   3.754  0.7908 -0.4282  1.7557
 5138SOL     OW15591   0.644   3.561   2.080  0.2175 -0.4684 -0.1157
 5138SOL    HW115592   0.576   3.557   2.153 -1.5128  0.2278 -1.5989
 5138SOL    HW215593   0.631   3.644   2.026  0.2998 -1.7585 -2.2362
 5139SOL     OW15594   3.189   4.646   7.569  0.3549  0.2846  0.1642
 5139SOL    HW115595   3.161   4.739   7.546 -1.4060 -0.3405 -0.3437
 5139SOL    HW215596   3.280   4.628   7.530  0.6099  1.6846  0.0614
 5140SOL     OW15597   0.591   6.996   3.345  0.8191 -0.3947  0.3482
 5140SOL    HW115598   0.506   7.022   3.299  1.2996  0.7878  0.0817
 5140SOL    HW215599   0.627   6.912   3.304  0.4817 -0.1551 -0.4651
 5141SOL     OW15600   2.067   6.492   6.721  0.3142  0.2677  0.4469
 5141SOL    HW115601   1.973   6.483   6.687 -0.0749 -0.1456  1.6171
 5141SOL    HW215602   2.110   6.402   6.726  0.6366  0.4125  0.3143
 5142SOL     OW15603   3.907   8.460   2.624  0.4128 -0.1125  0.4392
 5142SOL    HW115604   3.980   8.522   2.653  0.7535 -0.2913 -0.0320
 5142SOL    HW215605   3.942   8.367   2.620 -0.1670 -0.3824  1.3998
 5143SOL     OW15606   2.753   2.965   8.582  0.3356  0.1134  0.3177
 5143SOL    HW115607   2.785   2.884   8.629 -1.6862 -1.3252 -0.6126
 5143SOL    HW215608   2.658   2.983   8.607  0.5986  1.9321  0.1465
 5144SOL     OW15609   5.601   8.837   1.559 -0.3198 -0.7727  0.3157
 5144SOL    HW115610   5.688   8.874   1.528  0.1504 -1.5066  0.7111
 5144SOL    HW215611   5.539   8.827   1.482 -0.6151  1.1791  0.2506
 5145SOL     OW15612   2.039   8.078   3.194 -0.1316 -0.1207 -0.5022
 5145SOL    HW115613   1.985   8.092   3.277  1.2967 -0.0171  0.4319
 5145SOL    HW215614   1.977   8.064   3.117 -1.4964 -0.8293  0.6699
 5146SOL     OW15615   7.958   6.191   6.463  0.1292  0.3008  0.2894
 5146SOL    HW115616   8.029   6.247   6.421  1.3820 -2.1029 -0.9733
 5146SOL    HW215617   7.978   6.094   6.448 -3.8509 -0.5223 -0.9426
 5147SOL     OW15618   3.873   4.218   5.827  0.1147 -0.2295 -0.3871
 5147SOL    HW115619   3.941   4.202   5.897  0.0170 -1.0395 -0.4703
 5147SOL    HW215620   3.918   4.233   5.739  0.1861 -0.6696 -0.4242
 5148SOL     OW15621   0.657   5.937   5.499  0.0329 -0.1319  0.0866
 5148SOL    HW115622   0.658   6.023   5.549  0.4363  0.6489 -1.2121
 5148SOL    HW215623   0.741   5.929   5.445 -0.2894 -1.0400 -0.2962
 5149SOL     OW15624   5.981   6.999   4.350  0.1500 -0.1719  0.6261
 5149SOL    HW115625   6.029   7.065   4.294  2.7256 -0.9987  1.7275
 5149SOL    HW215626   5.893   7.038   4.380  0.1891  1.4813 -1.2416
 5150SOL     OW15627   7.408   4.031   2.688 -0.0077  0.6352  0.0543
 5150SOL    HW115628   7.444   3.957   2.632 -0.9612 -1.2735  1.8310
 5150SOL    HW215629   7.325   4.067   2.647 -0.3914 -0.3587 -0.0698
 5151SOL     OW15630   1.250   8.128   6.114 -0.0198 -0.2608  0.0554
 5151SOL    HW115631   1.238   8.075   6.030 -2.3398 -1.5650  1.0928
 5151SOL    HW215632   1.287   8.069   6.186  1.4957  0.7215  0.1194
 5152SOL     OW15633   6.286   7.324   0.050 -0.6783 -0.3450  0.1119
 5152SOL    HW115634   6.250   7.338  -0.042 -0.0209 -1.7182 -0.3791
 5152SOL    HW215635   6.345   7.401   0.075 -1.5483  0.4601 -0.2526
 5153SOL     OW15636   4.764   6.763   0.572 -0.0629 -0.0766  0.2073
 5153SOL    HW115637   4.840   6.703   0.597 -0.1811 -1.0685 -1.5981
 5153SOL    HW215638   4.694   6.761   0.643  0.4288 -1.2560  0.6775
 5154SOL     OW15639   8.553   6.809   6.875  0.0916  1.0247 -0.1977
 5154SOL    HW115640   8.567   6.741   6.947 -1.7037 -1.1030 -1.6858
 5154SOL    HW215641   8.467   6.788   6.827  1.2150  2.2905 -2.9704
 5155SOL     OW15642   2.483   7.189   3.387  0.2508  0.5589  0.7300
 5155SOL    HW115643   2.412   7.151   3.327  0.6296 -1.5213  1.5169
 5155SOL    HW215644   2.568   7.197   3.336  0.0149  0.9238  0.3878
 5156SOL     OW15645   5.929   2.314   3.753 -0.0491  0.0382  0.0091
 5156SOL    HW115646   5.992   2.346   3.683 -0.7110  0.5535 -0.3559
 5156SOL    HW215647   5.919   2.214   3.746  0.4233  0.0035 -0.1748
 5157SOL     OW15648   7.459   5.231   1.064 -0.6777  0.0380 -0.1900
 5157SOL    HW115649   7.466   5.250   1.162 -1.1134  0.1963 -0.1876
 5157SOL    HW215650   7.378   5.276   1.027 -0.0281  0.7438 -0.8030
 5158SOL     OW15651   5.696   3.012   5.501  0.1721 -0.8362 -0.4092
 5158SOL    HW115652   5.704   3.112   5.506 -0.4027 -0.7316 -1.3973
 5158SOL    HW215653   5.758   2.977   5.431 -0.3731 -1.0709 -0.7735
 5159SOL     OW15654   4.917   2.309   8.574  0.6163 -0.2298  0.1435
 5159SOL    HW115655   4.833   2.255   8.575  1.4998 -1.6531 -0.0579
 5159SOL    HW215656   4.920   2.365   8.492 -1.2501  1.7397  1.2926
 5160SOL     OW15657   7.588   8.492   3.259 -0.2583 -0.5051 -0.8209
 5160SOL    HW115658   7.492   8.473   3.238 -0.3637  0.1501 -0.9363
 5160SOL    HW215659   7.638   8.405   3.266 -1.0346 -0.8968  0.1077
 5161SOL     OW15660   5.185   8.190   0.600  0.2253  0.4130 -0.4991
 5161SOL    HW115661   5.196   8.144   0.512  0.8623 -0.5430  0.0582
 5161SOL    HW215662   5.108   8.254   0.595 -0.2047 -0.1573 -1.5355
 5162SOL     OW15663   6.154   8.248   8.757 -0.0321 -0.2785 -0.1076
 5162SOL    HW115664   6.082   8.299   8.803 -0.2612 -0.7997  0.1195
 5162SOL    HW215665   6.158   8.155   8.794  0.9525 -0.1639  0.0883
 5163SOL     OW15666   4.428   3.174   4.543 -0.3653 -0.1933  0.1841
 5163SOL    HW115667   4.439   3.093   4.600  2.1043  1.3503  2.0874
 5163SOL    HW215668   4.345   3.223   4.571  0.9986  0.7525  2.8838
 5164SOL     OW15669   6.768   5.429   4.083 -0.3696 -0.4366  0.2224
 5164SOL    HW115670   6.713   5.444   4.001 -0.0484  1.7738  0.3471
 5164SOL    HW215671   6.851   5.486   4.079 -0.6455  0.2275  2.3194
 5165SOL     OW15672   0.618   3.514   0.004  0.4929  0.7538  0.5100
 5165SOL    HW115673   0.535   3.532  -0.049  0.3453  0.0947  0.5076
 5165SOL    HW215674   0.699   3.527  -0.054  0.4280  1.8273  0.6275
 5166SOL     OW15675   6.013   0.017   6.042 -0.0333  0.3874 -0.1731
 5166SOL    HW115676   5.921   0.015   6.082  0.7459 -2.1070  1.7941
 5166SOL    HW215677   6.026  -0.063   5.984  0.6385  1.1954 -1.1706
 5167SOL     OW15678   5.496   4.580   2.698 -0.0610 -0.0858  0.2501
 5167SOL    HW115679   5.590   4.547   2.699  0.3315  1.0240  1.4337
 5167SOL    HW215680   5.441   4.522   2.638  1.4092 -0.6284 -0.6032
 5168SOL     OW15681   8.222   3.632   8.612  0.2048 -0.2733 -0.1900
 5168SOL    HW115682   8.309   3.613   8.566  0.7173 -0.1546  0.7013
 5168SOL    HW215683   8.205   3.562   8.681 -1.1769 -1.1586 -1.3604
 5169SOL     OW15684   4.386   6.142   6.645 -0.7026  0.5042  0.1076
 5169SOL    HW115685   4.336   6.056   6.631  0.1951 -0.5004  2.6600
 5169SOL    HW215686   4.387   6.193   6.559  1.1477 -3.2905 -2.4068
 5170SOL     OW15687   3.871   2.727   2.392  0.5898 -0.5127 -0.7706
 5170SOL    HW115688   3.857   2.734   2.293 -2.1235  0.5231 -0.3914
 5170SOL    HW215689   3.874   2.819   2.432 -2.3623 -0.8621  0.5115
 5171SOL     OW15690   6.280   6.892   1.597  0.4372  0.0872 -0.0065
 5171SOL    HW115691   6.300   6.985   1.629 -1.6527 -0.0366  1.9177
 5171SOL    HW215692   6.181   6.878   1.596  0.6541 -1.7355 -1.5357
 5172SOL     OW15693   8.676   1.594   2.325 -0.1349 -0.2637 -0.0204
 5172SOL    HW115694   8.597   1.538   2.349 -0.1716  0.0680  0.6649
 5172SOL    HW215695   8.737   1.542   2.265 -1.4847 -0.0775 -1.6388
 5173SOL     OW15696   2.681   3.176   6.305 -0.2955  0.2463  0.1317
 5173SOL    HW115697   2.777   3.154   6.323 -0.6523 -3.1706 -1.4215
 5173SOL    HW215698   2.623   3.136   6.376 -0.7722 -0.7574 -0.8049
 5174SOL     OW15699   0.840   6.983   8.824 -0.0674  0.0255  0.6545
 5174SOL    HW115700   0.883   7.073   8.827 -1.1828  0.5815  0.2504
 5174SOL    HW215701   0.798   6.969   8.735 -0.5273 -0.6052  0.9637
 5175SOL     OW15702   0.106   4.955   3.088 -0.2163 -0.0778  0.1146
 5175SOL    HW115703   0.192   4.997   3.057 -0.2187 -0.9046 -1.0698
 5175SOL    HW215704   0.043   5.027   3.118 -0.2811  0.8214 -2.0014
 5176SOL     OW15705   6.666   7.116   1.564  0.0393  0.5598 -0.4042
 5176SOL    HW115706   6.712   7.055   1.500  2.3018  1.6126  0.1050
 5176SOL    HW215707   6.591   7.164   1.518 -0.8374 -1.4561 -1.1815
 5177SOL     OW15708   2.059   3.123   6.634  0.6728  0.0816  0.1982
 5177SOL    HW115709   2.038   3.217   6.609  2.8260  0.6955  0.5048
 5177SOL    HW215710   1.973   3.072   6.648 -0.5348  2.0182  0.2191
 5178SOL     OW15711   8.235   3.259   4.459  0.1622 -0.3912 -0.3140
 5178SOL    HW115712   8.143   3.228   4.482  0.4328 -0.9085  0.0793
 5178SOL    HW215713   8.292   3.261   4.541  0.6524 -0.5821 -0.6418
 5179SOL     OW15714   5.386   2.336   8.140  0.5017 -0.2257 -0.2097
 5179SOL    HW115715   5.476   2.295   8.130  1.6919  1.5685  2.2284
 5179SOL    HW215716   5.354   2.323   8.234  0.3808  3.1604  0.3239
 5180SOL     OW15717   4.517   1.566   6.239 -0.2639  0.2191 -0.2651
 5180SOL    HW115718   4.552   1.656   6.212  1.2381 -0.4256 -0.5381
 5180SOL    HW215719   4.527   1.502   6.163  1.7376 -0.9974  0.9698
 5181SOL     OW15720   2.533   6.415   2.229  0.6768  0.3090 -0.2359
 5181SOL    HW115721   2.509   6.492   2.169 -1.4878 -1.1841 -1.3909
 5181SOL    HW215722   2.453   6.357   2.243  1.7554 -0.7257  2.1981
 5182SOL     OW15723   3.799   8.679   5.959  0.7058 -0.3063 -0.8752
 5182SOL    HW115724   3.792   8.739   5.879  3.4924 -2.8920 -3.3479
 5182SOL    HW215725   3.896   8.668   5.984  0.0202 -0.9562  1.8048
 5183SOL     OW15726   6.628   3.303   7.424 -0.0552  0.0554  0.1023
 5183SOL    HW115727   6.667   3.248   7.498  0.1912  1.5672  1.1391
 5183SOL    HW215728   6.530   3.285   7.417 -0.1683  0.1906  1.1071
 5184SOL     OW15729   8.121   8.660   4.317  0.4771 -0.1634  0.0833
 5184SOL    HW115730   8.185   8.716   4.369 -1.9810  2.6015  0.3900
 5184SOL    HW215731   8.027   8.682   4.344 -0.7487 -2.1177 -2.1709
 5185SOL     OW15732   4.898   7.415   3.872  0.1711  0.1794 -0.4739
 5185SOL    HW115733   4.815   7.419   3.927  1.4630  0.1070  1.5889
 5185SOL    HW215734   4.955   7.495   3.892 -0.1033  1.1531 -3.1615
 5186SOL     OW15735   2.621   1.254   4.821  0.1964 -0.6003  0.0634
 5186SOL    HW115736   2.587   1.347   4.803 -0.2786 -1.0352 -1.4359
 5186SOL    HW215737   2.555   1.205   4.878 -0.3812 -0.5490 -0.5455
 5187SOL     OW15738   2.212   0.854   7.933 -0.6706  0.0122 -0.2427
 5187SOL    HW115739   2.264   0.775   7.964  0.5857  0.5605 -0.8422
 5187SOL    HW215740   2.236   0.934   7.989 -2.2713 -0.1084  0.6593
 5188SOL     OW15741   8.283   3.068   3.580  0.1236  0.6682 -0.2594
 5188SOL    HW115742   8.277   2.968   3.578 -1.2128  0.7335 -0.2493
 5188SOL    HW215743   8.329   3.096   3.664 -1.9511  0.1283  1.1177
 5189SOL     OW15744   8.256   4.634   1.696 -0.1724 -0.3169  0.3922
 5189SOL    HW115745   8.228   4.642   1.792  1.2530 -1.1894  0.9233
 5189SOL    HW215746   8.218   4.710   1.643 -1.0738  0.1205  1.6218
 5190SOL     OW15747   6.828   6.664   5.332 -0.1736 -0.4256  0.1671
 5190SOL    HW115748   6.817   6.571   5.367 -0.0086  0.1267  1.7973
 5190SOL    HW215749   6.745   6.717   5.351  0.3455  0.1973  0.7578
 5191SOL     OW15750   6.545   3.359   0.948 -0.2466  0.1025 -0.0315
 5191SOL    HW115751   6.544   3.392   0.853 -1.2618 -0.0001 -0.0631
 5191SOL    HW215752   6.640   3.346   0.977  0.1057  0.8504 -0.7830
 5192SOL     OW15753   4.669   3.319   2.891 -0.2582  0.1744  0.2774
 5192SOL    HW115754   4.646   3.284   2.981 -1.2297  0.3156  0.1013
 5192SOL    HW215755   4.755   3.369   2.895 -1.2968  1.9886  1.6009
 5193SOL     OW15756   4.869   1.946   5.178 -0.1274  0.3289 -0.3684
 5193SOL    HW115757   4.781   1.994   5.181  0.4577  1.3703  1.2919
 5193SOL    HW215758   4.855   1.849   5.197 -1.0155  0.3081 -1.0641
 5194SOL     OW15759   0.204   7.841   3.707 -0.3556 -0.2563 -0.1114
 5194SOL    HW115760   0.260   7.785   3.646 -0.9297 -1.6600  0.6158
 5194SOL    HW215761   0.258   7.918   3.741  1.3647 -1.9119  1.0731
 5195SOL     OW15762   1.729   5.124   6.698  0.3236 -0.3512  0.1625
 5195SOL    HW115763   1.725   5.090   6.792  1.5391  0.1874  0.4353
 5195SOL    HW215764   1.720   5.048   6.634 -0.6821 -0.7006  0.7096
 5196SOL     OW15765   5.707   4.775   5.962  0.4080  0.3527 -0.8264
 5196SOL    HW115766   5.653   4.733   6.034  1.0018  0.0526 -0.5467
 5196SOL    HW215767   5.659   4.855   5.926  0.7254  1.3363  0.8437
 5197SOL     OW15768   6.202   5.980   3.041  0.0135 -0.6546 -0.7488
 5197SOL    HW115769   6.108   5.984   3.007 -0.4596  0.3494  0.6235
 5197SOL    HW215770   6.202   5.966   3.140  1.2529  0.9446 -0.4719
 5198SOL     OW15771   8.065   8.836   8.617  0.0879  0.6840 -0.4940
 5198SOL    HW115772   8.155   8.876   8.633  0.1571  0.1953  0.4221
 5198SOL    HW215773   7.997   8.886   8.671 -0.1194  0.7422 -0.8036
 5199SOL     OW15774   8.361   5.242   0.677 -0.2175  0.4067 -0.1120
 5199SOL    HW115775   8.461   5.242   0.676 -0.2149 -0.3585 -1.8793
 5199SOL    HW215776   8.328   5.156   0.717 -0.1698  0.1692 -0.5842
 5200SOL     OW15777   7.372   3.312   6.977  1.3067  0.0695 -0.5925
 5200SOL    HW115778   7.427   3.289   7.058 -0.0320 -0.9458  0.0685
 5200SOL    HW215779   7.300   3.377   7.003 -0.5719 -1.9826 -0.3721
 5201SOL     OW15780   1.458   5.783   8.005 -0.5294  0.1959 -0.6063
 5201SOL    HW115781   1.521   5.741   8.070 -0.7261  1.9071  0.7604
 5201SOL    HW215782   1.400   5.712   7.965  1.1933 -1.2070 -0.7364
 5202SOL     OW15783   4.394   1.928   6.681 -0.4536  0.3846  0.2408
 5202SOL    HW115784   4.428   1.993   6.613 -0.5530  0.3190  0.1296
 5202SOL    HW215785   4.302   1.898   6.657 -0.6826  0.7403  0.6694
 5203SOL     OW15786   2.189   5.552   7.571  0.7368 -0.1171 -0.4675
 5203SOL    HW115787   2.231   5.549   7.661  0.0204  0.7539 -0.0840
 5203SOL    HW215788   2.237   5.619   7.514  0.9871 -0.4313 -0.6263
 5204SOL     OW15789   7.590   8.049   1.371 -0.3452 -0.3898 -0.2223
 5204SOL    HW115790   7.671   8.068   1.426  1.9587 -0.5110 -3.3178
 5204SOL    HW215791   7.552   7.960   1.396  0.5130 -0.3731  1.2058
 5205SOL     OW15792   6.734   2.819   3.119  0.6203  0.3137  0.3426
 5205SOL    HW115793   6.673   2.802   3.041  0.2601 -0.4658  0.7749
 5205SOL    HW215794   6.695   2.776   3.201  1.6702 -0.0669  0.6600
 5206SOL     OW15795   7.998   5.025   0.723 -0.3376  0.3803 -0.2157
 5206SOL    HW115796   8.030   5.069   0.807 -1.4116 -0.4368  0.6412
 5206SOL    HW215797   8.035   4.932   0.718 -0.7320  0.2322 -0.3699
 5207SOL     OW15798   0.078   6.298   7.226 -0.9154  0.6509 -0.2973
 5207SOL    HW115799   0.168   6.253   7.220 -1.8028 -1.5799  1.6743
 5207SOL    HW215800   0.020   6.266   7.151 -0.8636  0.1616 -0.1284
 5208SOL     OW15801   1.532   5.306   6.723 -0.8465 -0.4283 -0.1627
 5208SOL    HW115802   1.601   5.236   6.706  0.0205  0.3324  0.1497
 5208SOL    HW215803   1.527   5.325   6.821 -1.1928 -0.1660 -0.2272
 5209SOL     OW15804   8.017   1.510   3.469  0.4700 -0.6826  0.2516
 5209SOL    HW115805   8.087   1.568   3.510  1.0310 -0.9278 -0.3452
 5209SOL    HW215806   7.930   1.526   3.515  0.6722  0.4327  0.2719
 5210SOL     OW15807   0.068   3.898   8.842 -0.0281 -0.4886 -0.2591
 5210SOL    HW115808   0.035   3.808   8.872 -1.3494  0.2850  0.7410
 5210SOL    HW215809   0.022   3.969   8.895  2.9971  0.7324  0.8977
 5211SOL     OW15810   1.199   8.017   2.833  0.0835 -0.5341  0.4465
 5211SOL    HW115811   1.101   8.034   2.833  0.1179 -0.2542  1.7790
 5211SOL    HW215812   1.216   7.919   2.830 -0.2508 -0.6082  0.9638
 5212SOL     OW15813   2.786   0.669   1.711  0.2151 -0.7147 -0.2757
 5212SOL    HW115814   2.883   0.650   1.703  0.4644  0.7350 -1.1913
 5212SOL    HW215815   2.771   0.743   1.776 -0.3799 -1.5526  0.5704
 5213SOL     OW15816   3.435   4.391   6.464 -0.1313  0.2986  0.3353
 5213SOL    HW115817   3.374   4.349   6.531 -0.6330  1.3145  0.5340
 5213SOL    HW215818   3.479   4.470   6.505  1.4072 -0.4690  0.2183
 5214SOL     OW15819   7.818   1.566   2.027  0.1802 -0.5869  0.7437
 5214SOL    HW115820   7.736   1.557   1.971 -0.3569  0.6040  1.3021
 5214SOL    HW215821   7.892   1.605   1.972  0.9167 -3.0981 -0.2068
 5215SOL     OW15822   3.400   1.403   2.786  0.0688  0.0689  0.0384
 5215SOL    HW115823   3.371   1.413   2.691  0.3144  0.3258 -0.0094
 5215SOL    HW215824   3.500   1.399   2.791  0.0582  0.0443  0.2844
 5216SOL     OW15825   7.619   6.584   4.650  0.3328  0.3370  0.4890
 5216SOL    HW115826   7.660   6.525   4.581  0.4001 -1.7588  2.2120
 5216SOL    HW215827   7.522   6.598   4.629  0.8369  1.6065 -1.1855
 5217SOL     OW15828   4.533   5.554   7.429  0.6879  0.0989 -0.3705
 5217SOL    HW115829   4.616   5.565   7.483 -0.6593  1.3997  1.6193
 5217SOL    HW215830   4.499   5.644   7.401  1.2788 -0.5179 -3.4658
 5218SOL     OW15831   7.756   6.983   2.706 -0.2891  0.3504 -0.4749
 5218SOL    HW115832   7.753   6.889   2.738  0.6635  0.4131 -0.1768
 5218SOL    HW215833   7.843   7.001   2.660 -0.1796  1.2659  0.0551
 5219SOL     OW15834   0.348   0.931   0.321  0.4044 -0.6814 -0.5197
 5219SOL    HW115835   0.287   0.911   0.398  1.4232  2.1714  1.1631
 5219SOL    HW215836   0.442   0.909   0.347  0.6581 -0.5184 -1.2886
 5220SOL     OW15837   5.330   8.483   6.205  0.2183  0.2824  0.2752
 5220SOL    HW115838   5.302   8.544   6.131  0.4147 -1.1638 -1.0639
 5220SOL    HW215839   5.418   8.513   6.242 -0.1525  1.3499  0.3185
 5221SOL     OW15840   3.740   6.410   3.676 -0.1638 -0.6026  0.0367
 5221SOL    HW115841   3.782   6.377   3.591 -1.8546  1.0361 -1.5178
 5221SOL    HW215842   3.712   6.505   3.665 -0.3988 -0.3174  2.4923
 5222SOL     OW15843   0.027   4.313   5.562 -0.0725 -0.8739  0.4728
 5222SOL    HW115844   0.099   4.362   5.513  1.5407 -1.6966  1.9316
 5222SOL    HW215845   0.021   4.219   5.527 -0.6585 -0.7232  0.1575
 5223SOL     OW15846   6.524   1.639   8.855 -0.0440  0.2264  0.1134
 5223SOL    HW115847   6.448   1.575   8.868 -1.1690  1.5043 -0.0132
 5223SOL    HW215848   6.529   1.701   8.932  1.5177 -0.4552  0.5941
 5224SOL     OW15849   6.218   2.165   2.743  0.5582  0.1886 -0.1619
 5224SOL    HW115850   6.189   2.078   2.783 -3.9148  1.5761  0.2110
 5224SOL    HW215851   6.277   2.213   2.808  0.2386 -1.0870  1.1344
 5225SOL     OW15852   1.262   7.933   3.433  0.2411  0.2545 -0.1160
 5225SOL    HW115853   1.253   8.033   3.433  1.1368  0.3393 -0.1174
 5225SOL    HW215854   1.279   7.901   3.526 -1.1030 -0.0122  0.0615
 5226SOL     OW15855   5.110   8.300   7.498 -0.0282  0.4183 -0.4753
 5226SOL    HW115856   5.109   8.201   7.490 -0.9301  0.4325 -0.5989
 5226SOL    HW215857   5.017   8.334   7.515  0.3623  1.1869  0.2350
 5227SOL     OW15858   7.610   2.755   0.997  0.6257  0.1256  0.8177
 5227SOL    HW115859   7.703   2.790   0.985  0.0026  1.5524 -0.0993
 5227SOL    HW215860   7.561   2.760   0.910 -0.2714 -0.7514  1.2540
 5228SOL     OW15861   8.641   4.922   0.003 -0.0755  0.4125  0.1074
 5228SOL    HW115862   8.638   4.946   0.100 -0.7646 -0.0865  0.2225
 5228SOL    HW215863   8.570   4.972  -0.046 -1.2219 -0.9887  0.2730
 5229SOL     OW15864   2.248   0.572   2.116 -0.0774 -0.4147 -0.4271
 5229SOL    HW115865   2.202   0.660   2.107 -0.5902 -0.6553 -0.2056
 5229SOL    HW215866   2.310   0.574   2.195 -0.7035 -0.5125  0.0746
 5230SOL     OW15867   4.340   0.145   0.097  0.6147 -0.2146  0.1784
 5230SOL    HW115868   4.393   0.175   0.176  0.2711  0.4124  0.1708
 5230SOL    HW215869   4.251   0.190   0.096  0.5323 -0.3750 -0.4519
 5231SOL     OW15870   4.844   8.164   4.991 -0.1564  0.4143  0.0513
 5231SOL    HW115871   4.785   8.167   5.072 -1.9469  0.7760 -1.2141
 5231SOL    HW215872   4.933   8.126   5.017 -0.5725  0.7745  2.2328
 5232SOL     OW15873   6.985   7.185   4.899  0.3892  0.3940  0.2849
 5232SOL    HW115874   6.928   7.115   4.941  0.7480 -0.1317 -0.0955
 5232SOL    HW215875   6.942   7.215   4.813  1.6671 -1.4988 -1.0960
 5233SOL     OW15876   0.366   7.698   2.839  0.3549 -0.1769 -0.8016
 5233SOL    HW115877   0.371   7.619   2.900 -0.3872 -1.2170 -2.0180
 5233SOL    HW215878   0.384   7.782   2.890  0.0990 -1.0342  0.7439
 5234SOL     OW15879   0.097   4.824   8.109  0.2080 -0.4853 -0.3664
 5234SOL    HW115880   0.058   4.913   8.133  1.2907  0.0283 -0.4298
 5234SOL    HW215881   0.029   4.752   8.123 -0.8958  0.4230 -0.9345
 5235SOL     OW15882   5.214   2.764   0.983 -0.2521  0.2870 -0.2181
 5235SOL    HW115883   5.257   2.801   1.066 -0.5800  0.2513 -0.0308
 5235SOL    HW215884   5.116   2.753   0.998 -0.6426  2.0348 -1.2441
 5236SOL     OW15885   6.964   6.727   7.674 -0.6304  0.0142 -0.0712
 5236SOL    HW115886   7.055   6.687   7.669 -0.6433  0.0792 -0.9702
 5236SOL    HW215887   6.969   6.817   7.719 -0.6930 -1.1985  2.5686
 5237SOL     OW15888   5.814   3.550   6.822 -0.1435  0.3774  0.2927
 5237SOL    HW115889   5.883   3.620   6.807 -1.4701  1.1420 -3.0439
 5237SOL    HW215890   5.833   3.471   6.765 -2.2591  0.8613 -1.1900
 5238SOL     OW15891   3.642   6.622   6.860  0.0623 -0.0143  0.1788
 5238SOL    HW115892   3.558   6.677   6.857 -0.0338 -0.0551  1.4712
 5238SOL    HW215893   3.618   6.525   6.858  0.0384 -0.0317  1.1281
 5239SOL     OW15894   7.335   0.118   3.230 -0.3286  0.1706  0.1143
 5239SOL    HW115895   7.271   0.137   3.156  2.7607  2.1225 -2.3148
 5239SOL    HW215896   7.310   0.173   3.311 -2.3293 -0.0865 -0.2643
 5240SOL     OW15897   1.032   5.538   6.279 -0.2691  0.2440  0.4071
 5240SOL    HW115898   1.025   5.480   6.360  0.3770 -0.0464  0.2662
 5240SOL    HW215899   0.953   5.599   6.274 -0.9381 -0.5935  0.5774
 5241SOL     OW15900   5.702   7.377   8.430  0.4138  0.3738  0.7108
 5241SOL    HW115901   5.692   7.340   8.338  1.8641 -0.6977  0.9448
 5241SOL    HW215902   5.737   7.305   8.491 -1.0809  0.8690  2.2558
 5242SOL     OW15903   5.366   4.539   2.947 -0.1153 -0.2303 -0.2889
 5242SOL    HW115904   5.419   4.557   2.864  1.6955 -1.8171  0.4450
 5242SOL    HW215905   5.362   4.440   2.963 -1.5026 -0.0228  0.8591
 5243SOL     OW15906   0.104   3.862   1.522  0.0926  0.4874  0.0750
 5243SOL    HW115907   0.141   3.950   1.554  1.7455  0.7596 -2.3353
 5243SOL    HW215908   0.092   3.864   1.423 -0.7979 -1.6996  0.0754
 5244SOL     OW15909   0.752   3.114   6.604  0.3296 -0.1833  0.0574
 5244SOL    HW115910   0.726   3.209   6.620 -0.5527 -0.0743 -1.7535
 5244SOL    HW215911   0.826   3.110   6.537  2.3956 -0.7034  2.2082
 5245SOL     OW15912   4.121   8.625   1.981 -0.5347 -0.3268 -0.5704
 5245SOL    HW115913   4.034   8.598   1.940 -0.3297 -0.9643 -0.6012
 5245SOL    HW215914   4.151   8.711   1.942 -1.0840 -0.1749 -0.6629
 5246SOL     OW15915   7.592   6.615   5.948  0.3035 -0.5089  0.6142
 5246SOL    HW115916   7.602   6.637   6.045 -0.0425  0.5612  0.4294
 5246SOL    HW215917   7.639   6.684   5.893 -0.0376 -0.7448  0.0114
 5247SOL     OW15918   3.821   6.996   6.118  0.5383  0.3797  1.0443
 5247SOL    HW115919   3.769   7.065   6.066  1.6692  0.9811  0.6866
 5247SOL    HW215920   3.900   6.968   6.064 -0.9023 -2.6657  0.3135
 5248SOL     OW15921   5.734   8.472   0.164  0.4440  0.1932 -0.2360
 5248SOL    HW115922   5.711   8.484   0.261 -1.7162 -0.2008 -0.6403
 5248SOL    HW215923   5.819   8.419   0.157  1.4002  1.3933  1.4097
 5249SOL     OW15924   3.574   3.425   7.545  0.0682 -0.3125 -0.3568
 5249SOL    HW115925   3.610   3.331   7.546 -1.3143 -0.9104 -1.6872
 5249SOL    HW215926   3.556   3.455   7.639 -0.1727 -1.6750  0.0603
 5250SOL     OW15927   7.902   1.671   3.090 -0.2220 -0.7610  0.1004
 5250SOL    HW115928   7.918   1.678   2.992  1.1306  0.4072  0.3694
 5250SOL    HW215929   7.931   1.581   3.123 -0.3855 -1.0387 -0.5151
 5251SOL     OW15930   8.173   1.433   7.060  0.2198 -0.1304  0.3239
 5251SOL    HW115931   8.200   1.499   7.130 -0.1912  0.7817 -0.3550
 5251SOL    HW215932   8.083   1.457   7.024 -0.1186 -1.3035  0.3338
 5252SOL     OW15933   4.684   6.692   4.963 -0.1066 -0.5063  0.5387
 5252SOL    HW115934   4.657   6.785   4.936  2.8039  0.8798  1.9601
 5252SOL    HW215935   4.729   6.647   4.886 -0.4613 -0.2913  0.1997
 5253SOL     OW15936   0.878   1.925   8.526  0.1710  0.5326 -0.1161
 5253SOL    HW115937   0.959   1.876   8.559 -1.1065 -1.4033  0.2970
 5253SOL    HW215938   0.805   1.920   8.594 -0.5491  1.6535 -0.7666
 5254SOL     OW15939   8.734   3.828   6.658  0.2040  0.0939 -0.1515
 5254SOL    HW115940   8.727   3.852   6.755  1.1345 -2.1716  0.5441
 5254SOL    HW215941   8.723   3.910   6.602  1.4545  1.7801  1.9294
 5255SOL     OW15942   3.252   5.504   8.703 -0.0654 -0.0495  0.8373
 5255SOL    HW115943   3.352   5.502   8.714  0.2682  3.5301  0.0176
 5255SOL    HW215944   3.230   5.521   8.607 -1.5013 -1.1925  0.9449
 5256SOL     OW15945   8.003   1.556   7.797  0.1312  0.1177  0.2268
 5256SOL    HW115946   8.013   1.513   7.887  1.0612 -0.2004 -0.0137
 5256SOL    HW215947   8.081   1.531   7.740 -0.6946 -0.0924 -0.8436
 5257SOL     OW15948   0.231   4.429   2.394 -0.0239 -0.2188 -0.2409
 5257SOL    HW115949   0.292   4.506   2.375  1.4901 -1.1356  0.7006
 5257SOL    HW215950   0.183   4.445   2.481 -2.2859  1.1452 -1.6350
 5258SOL     OW15951   5.168   3.693   2.179 -0.0338 -0.4605  0.7985
 5258SOL    HW115952   5.077   3.704   2.218  0.5666  2.8721  1.5453
 5258SOL    HW215953   5.200   3.780   2.143  1.9262 -2.0874 -1.7304
 5259SOL     OW15954   1.243   6.536   0.337  0.4886 -0.2065  0.0110
 5259SOL    HW115955   1.341   6.526   0.320  0.4315  0.6883 -0.9535
 5259SOL    HW215956   1.201   6.446   0.344  1.0428 -0.6203 -1.6323
 5260SOL     OW15957   4.173   8.409   0.868  0.2382  0.1735 -0.3243
 5260SOL    HW115958   4.082   8.426   0.830 -1.0537 -1.7664  1.6834
 5260SOL    HW215959   4.211   8.327   0.827  0.4499  0.1506 -0.0840
 5261SOL     OW15960   5.653   5.957   7.475 -0.8235 -0.2269  0.4398
 5261SOL    HW115961   5.704   6.032   7.516 -1.0046  0.3625 -0.3844
 5261SOL    HW215962   5.559   5.986   7.459 -0.9462 -0.7012  0.2897
 5262SOL     OW15963   8.777   1.119   0.366 -0.3509 -0.2134 -0.4030
 5262SOL    HW115964   8.808   1.125   0.461 -0.4882 -1.1428 -0.2961
 5262SOL    HW215965   8.841   1.169   0.308  2.0827 -2.9680 -0.3236
 5263SOL     OW15966   2.131   0.128   7.425 -0.2491 -0.1264  0.4721
 5263SOL    HW115967   2.157   0.158   7.334 -1.3183  2.4519  0.9481
 5263SOL    HW215968   2.209   0.138   7.487  0.5038 -1.9605 -0.1085
 5264SOL     OW15969   6.796   4.767   8.471  0.3640  0.4172 -0.1809
 5264SOL    HW115970   6.818   4.852   8.520  3.0882  0.3177 -1.0368
 5264SOL    HW215971   6.851   4.692   8.507 -0.7878 -0.6477 -0.5526
 5265SOL     OW15972   1.613   2.856   2.556 -0.5440 -0.1333 -0.0579
 5265SOL    HW115973   1.528   2.831   2.602 -2.0160  1.5216 -1.7454
 5265SOL    HW215974   1.664   2.921   2.613 -0.1605 -1.3813  1.1080
 5266SOL     OW15975   1.309   4.709   2.493 -0.0168 -0.4246  0.7936
 5266SOL    HW115976   1.337   4.681   2.585 -1.7775 -1.3851  1.0830
 5266SOL    HW215977   1.353   4.796   2.470  1.0700 -0.5585  2.2109
 5267SOL     OW15978   0.149   5.220   1.615  0.4931  0.8487 -0.0392
 5267SOL    HW115979   0.096   5.155   1.669 -0.1952  1.6879  0.3170
 5267SOL    HW215980   0.088   5.269   1.553  1.4502 -1.0710 -2.6522
 5268SOL     OW15981   7.983   4.426   2.601  0.1034 -0.0380  0.1693
 5268SOL    HW115982   8.012   4.337   2.566 -1.0121 -0.3287 -0.0720
 5268SOL    HW215983   7.912   4.463   2.541  1.9113  1.9454 -0.8608
 5269SOL     OW15984   4.511   2.987   1.356  0.2423  0.0361 -0.4247
 5269SOL    HW115985   4.470   2.965   1.445  0.6908 -1.6556 -0.5936
 5269SOL    HW215986   4.518   3.086   1.346  1.9501  0.2819  2.2606
 5270SOL     OW15987   8.558   2.207   4.620  0.3828  0.1078 -0.3070
 5270SOL    HW115988   8.625   2.199   4.693  0.6088  0.0344 -0.5213
 5270SOL    HW215989   8.496   2.283   4.640 -0.9894 -1.3212  1.1073
 5271SOL     OW15990   5.046   1.488   0.093 -0.1126  0.1490  0.3510
 5271SOL    HW115991   4.989   1.485   0.176 -2.2443  2.3547 -0.8967
 5271SOL    HW215992   5.006   1.427   0.024 -1.2170  1.9126 -0.6234
 5272SOL     OW15993   3.551   2.357   3.918 -0.0178 -0.4293  0.1970
 5272SOL    HW115994   3.529   2.454   3.925 -1.1645 -0.7771  1.9115
 5272SOL    HW215995   3.642   2.340   3.955  0.3466  0.0263 -0.4687
 5273SOL     OW15996   4.552   6.393   4.905 -0.2048  0.3681  0.4333
 5273SOL    HW115997   4.464   6.370   4.947  0.6971 -0.2056  2.1034
 5273SOL    HW215998   4.609   6.441   4.971  1.7518 -1.6716  0.3586
 5274SOL     OW15999   0.554   7.960   8.419  0.3054 -0.6068  0.0780
 5274SOL    HW116000   0.631   7.914   8.464  1.2689  0.6721 -0.1921
 5274SOL    HW216001   0.550   7.931   8.323 -1.4579 -2.9700  0.7665
 5275SOL     OW16002   0.871   1.035   4.335  0.2983 -0.0167  0.4264
 5275SOL    HW116003   0.828   1.026   4.245  0.8447  0.8987  0.0668
 5275SOL    HW216004   0.951   0.974   4.340  0.2718 -0.0628  0.2935
 5276SOL     OW16005   2.919   8.773   1.304  0.8215  0.2111 -0.4936
 5276SOL    HW116006   2.952   8.799   1.395  0.6051  2.0289 -0.8993
 5276SOL    HW216007   2.830   8.728   1.313  0.6797  0.6029  0.1910
 5277SOL     OW16008   4.215   8.533   3.222  0.0719  0.1950 -0.1136
 5277SOL    HW116009   4.205   8.481   3.307 -1.4089  0.1315 -0.3024
 5277SOL    HW216010   4.273   8.613   3.238  2.5546 -1.5254  0.1534
 5278SOL     OW16011   7.810   6.363   3.212  0.3968 -0.5868 -0.1462
 5278SOL    HW116012   7.749   6.405   3.145  1.0432  0.0551 -0.3391
 5278SOL    HW216013   7.902   6.355   3.174  0.4117 -1.7053  0.0792
 5279SOL     OW16014   4.788   8.272   7.737  0.1378  1.0662  0.3713
 5279SOL    HW116015   4.746   8.208   7.673 -2.6496  1.8701  1.2555
 5279SOL    HW216016   4.875   8.235   7.769 -0.4753 -1.3834 -0.5669
 5280SOL     OW16017   0.244   2.901   1.592 -0.1733  0.5370  0.0921
 5280SOL    HW116018   0.315   2.919   1.523 -0.6132  1.6206 -0.0985
 5280SOL    HW216019   0.161   2.952   1.568 -1.3179 -1.3256 -0.1202
 5281SOL     OW16020   1.400   6.676   3.619  0.2822  0.2190 -0.0603
 5281SOL    HW116021   1.469   6.741   3.586  0.2322  1.1917  1.6175
 5281SOL    HW216022   1.377   6.612   3.546 -0.2452  2.5473 -2.0512
 5282SOL     OW16023   6.819   1.592   0.812  0.1382  0.2970 -0.3894
 5282SOL    HW116024   6.826   1.692   0.817  1.3465  0.1710  1.4527
 5282SOL    HW216025   6.778   1.557   0.897 -2.4336 -0.6810 -1.9019
 5283SOL     OW16026   4.305   8.330   8.542  0.3184 -0.2792  0.1140
 5283SOL    HW116027   4.218   8.294   8.574 -0.0871 -1.0499 -1.6751
 5283SOL    HW216028   4.360   8.360   8.619 -2.4071  2.3947  1.1833
 5284SOL     OW16029   7.287   5.504   8.624 -0.3356 -0.1919  0.2324
 5284SOL    HW116030   7.289   5.550   8.535 -1.4738 -0.1326  0.2204
 5284SOL    HW216031   7.295   5.572   8.697 -2.6605  0.1707  0.2314
 5285SOL     OW16032   2.856   5.566   5.538  0.4498  0.2044 -0.3511
 5285SOL    HW116033   2.871   5.665   5.545 -0.4562  0.3018  0.4233
 5285SOL    HW216034   2.764   5.549   5.504  0.7708 -0.3792 -0.9471
 5286SOL     OW16035   8.277   3.556   0.394  0.2074  0.0808  0.3731
 5286SOL    HW116036   8.250   3.499   0.472 -2.0209  1.1585  0.4720
 5286SOL    HW216037   8.304   3.647   0.427  0.8157  0.0401 -0.0058
 5287SOL     OW16038   3.052   8.256   4.049 -0.6029  0.1002  0.7548
 5287SOL    HW116039   3.102   8.183   4.096  0.8780  2.1372  2.5338
 5287SOL    HW216040   3.073   8.344   4.091 -1.3320  1.7800 -2.0730
 5288SOL     OW16041   3.808   5.695   1.937  0.5669 -0.2009 -0.3359
 5288SOL    HW116042   3.749   5.776   1.931 -1.2219 -1.4900 -0.9140
 5288SOL    HW216043   3.850   5.691   2.028 -0.2633  0.7329  0.1079
 5289SOL     OW16044   5.179   6.237   4.257 -0.6161 -0.2934 -0.6896
 5289SOL    HW116045   5.192   6.144   4.291 -0.9463 -0.3987 -0.8550
 5289SOL    HW216046   5.256   6.294   4.288 -0.4456 -0.6025 -0.5345
 5290SOL     OW16047   2.106   1.066   3.863 -0.3436  0.1891  0.0408
 5290SOL    HW116048   2.145   0.975   3.878 -0.5703  0.2811  1.2876
 5290SOL    HW216049   2.080   1.076   3.767 -1.2338 -1.4161  0.0883
 5291SOL     OW16050   7.013   1.557   5.179  0.1377 -0.2326  0.0453
 5291SOL    HW116051   7.086   1.502   5.219  0.6374  0.4295  0.0737
 5291SOL    HW216052   7.009   1.542   5.080  0.7310  0.1862 -0.0499
 5292SOL     OW16053   7.074   4.230   1.038 -0.5890  0.3190 -0.0362
 5292SOL    HW116054   7.046   4.284   1.118 -1.4847 -0.3777  0.1377
 5292SOL    HW216055   7.070   4.133   1.061  1.4026  0.1651 -0.2143
 5293SOL     OW16056   1.500   7.593   0.515 -0.3369  0.1810 -0.3688
 5293SOL    HW116057   1.445   7.666   0.556  0.8777  0.0266  1.6340
 5293SOL    HW216058   1.454   7.506   0.528 -0.1765  0.1893  0.2604
 5294SOL     OW16059   4.867   4.977   0.810 -0.0717 -0.0388  0.3661
 5294SOL    HW116060   4.820   4.894   0.780  1.1268 -0.7352  0.3487
 5294SOL    HW216061   4.830   5.056   0.761 -0.5059 -0.7023 -0.3933
 5295SOL     OW16062   5.467   6.101   1.207  0.1477  0.1555 -0.2249
 5295SOL    HW116063   5.384   6.088   1.153  0.8726 -0.0385 -1.3111
 5295SOL    HW216064   5.492   6.198   1.208 -0.5082  0.3337  0.7634
 5296SOL     OW16065   0.074   8.388   0.216 -0.0873  0.3152 -0.2292
 5296SOL    HW116066   0.160   8.352   0.251 -0.1909  0.2425 -0.0479
 5296SOL    HW216067   0.048   8.337   0.134 -0.0532  0.2099 -0.1756
 5297SOL     OW16068   1.996   5.903   8.270 -0.0266 -0.6512  0.4381
 5297SOL    HW116069   1.962   5.833   8.332 -1.8684 -0.2202 -0.0368
 5297SOL    HW216070   1.936   5.983   8.272  0.4837 -0.1760 -1.0645
 5298SOL     OW16071   6.931   7.360   4.248  0.3302 -0.1835  0.8323
 5298SOL    HW116072   6.858   7.398   4.192  0.7315  1.3485  1.2924
 5298SOL    HW216073   7.010   7.422   4.247  1.5490 -1.6596  0.5643
 5299SOL     OW16074   5.404   5.335   3.929  0.1406  0.1240 -0.2061
 5299SOL    HW116075   5.388   5.351   3.831  0.0108  1.1550 -0.0222
 5299SOL    HW216076   5.420   5.422   3.975  0.7265 -0.4056  0.6080
 5300SOL     OW16077   0.497   5.633   2.356  0.1929 -0.5058 -0.0089
 5300SOL    HW116078   0.468   5.678   2.440  0.1710  0.4749 -0.5277
 5300SOL    HW216079   0.564   5.690   2.308 -0.1007 -0.8561 -0.8651
 5301SOL     OW16080   8.508   1.502   3.332 -0.0157 -0.1634 -0.1793
 5301SOL    HW116081   8.411   1.513   3.313 -0.0779  0.3352  0.3955
 5301SOL    HW216082   8.562   1.555   3.267 -0.0924 -0.8979 -0.8657
 5302SOL     OW16083   6.585   5.276   3.036 -0.1527 -0.7388  0.4093
 5302SOL    HW116084   6.624   5.351   3.089 -2.2967 -0.6669  2.0298
 5302SOL    HW216085   6.512   5.310   2.977  1.3933 -1.0212 -1.8093
 5303SOL     OW16086   2.012   0.365   0.684 -0.2889  0.3106 -0.2945
 5303SOL    HW116087   1.949   0.312   0.741  0.7506 -0.9829 -0.2956
 5303SOL    HW216088   2.044   0.308   0.608  1.5071  0.6453  0.1701
 5304SOL     OW16089   4.221   4.840   0.141  0.1940 -0.0340  0.3234
 5304SOL    HW116090   4.215   4.818   0.044  0.4204  0.3187  0.2256
 5304SOL    HW216091   4.133   4.821   0.186  0.2297 -0.6224  0.1408
 5305SOL     OW16092   4.216   7.876   2.438 -0.0047 -0.0051  0.2068
 5305SOL    HW116093   4.225   7.975   2.453  1.7602 -0.0926 -0.0876
 5305SOL    HW216094   4.248   7.828   2.519 -1.1891 -0.3523  0.4841
 5306SOL     OW16095   1.702   0.852   0.663 -0.7161  0.3799  0.0405
 5306SOL    HW116096   1.706   0.781   0.593 -0.2328  0.5956 -0.1545
 5306SOL    HW216097   1.730   0.812   0.751 -0.6449  0.2752 -0.0279
 5307SOL     OW16098   4.120   1.893   7.448 -0.1101 -0.2601 -0.4756
 5307SOL    HW116099   4.041   1.833   7.442 -1.4532  1.2741  0.8647
 5307SOL    HW216100   4.090   1.986   7.471  1.9817  0.6765 -1.2233
 5308SOL     OW16101   5.345   3.178   2.943  0.6179  0.3976  0.4987
 5308SOL    HW116102   5.310   3.100   2.995 -0.5906  0.0427 -0.7859
 5308SOL    HW216103   5.324   3.165   2.846 -1.1104  3.0928  0.4270
 5309SOL     OW16104   6.351   1.292   0.541  0.2901 -0.7610  0.1513
 5309SOL    HW116105   6.450   1.283   0.535  0.2127 -1.6390  0.0894
 5309SOL    HW216106   6.325   1.326   0.632  0.6960  0.4038 -0.1524
 5310SOL     OW16107   5.736   6.064   3.764 -0.3007 -0.1643  0.2569
 5310SOL    HW116108   5.677   6.141   3.789  2.7314  1.8730  1.7583
 5310SOL    HW216109   5.773   6.022   3.846 -0.0527 -1.7755 -0.6249
 5311SOL     OW16110   1.677   8.504   6.229 -0.0309  0.1472  0.3606
 5311SOL    HW116111   1.650   8.531   6.321 -0.5458 -1.8053  0.8456
 5311SOL    HW216112   1.616   8.431   6.197  0.1114  0.8294 -1.5575
 5312SOL     OW16113   0.999   2.434   1.621 -0.2313 -0.6536 -0.0831
 5312SOL    HW116114   0.944   2.357   1.591  1.1200 -1.7354  0.0967
 5312SOL    HW216115   1.095   2.418   1.598 -0.0480  1.5746 -1.2005
 5313SOL     OW16116   7.751   7.401   8.815  0.4476  0.4751  0.2976
 5313SOL    HW116117   7.736   7.330   8.747  1.6309  0.6052 -0.1347
 5313SOL    HW216118   7.701   7.484   8.789  1.0439  0.5850 -0.5290
 5314SOL     OW16119   0.838   6.052   2.116 -0.1162 -0.5545  0.6678
 5314SOL    HW116120   0.776   5.973   2.119 -1.1066  0.0149 -1.8131
 5314SOL    HW216121   0.869   6.074   2.208  0.3566 -3.9209  1.4540
 5315SOL     OW16122   4.987   8.563   1.901  0.2898 -0.4397 -0.2601
 5315SOL    HW116123   4.903   8.579   1.954  1.5651  2.6648  1.0783
 5315SOL    HW216124   5.052   8.512   1.957  0.2614 -0.5394 -0.3168
 5316SOL     OW16125   0.103   2.204   0.682 -0.0624 -0.8354  0.0493
 5316SOL    HW116126   0.038   2.222   0.608  1.1554 -2.8448 -1.6173
 5316SOL    HW216127   0.054   2.193   0.768 -1.3807  4.1009  0.2505
 5317SOL     OW16128   0.437   5.532   8.134  0.0506  0.0022  0.4010
 5317SOL    HW116129   0.479   5.471   8.069 -2.2979 -0.1873 -1.0722
 5317SOL    HW216130   0.499   5.608   8.154  1.6388 -1.0328 -0.4072
 5318SOL     OW16131   7.485   8.059   2.382 -0.6163 -0.0777 -0.1820
 5318SOL    HW116132   7.562   8.001   2.410 -1.1006 -0.9754 -0.6513
 5318SOL    HW216133   7.456   8.034   2.290  0.3874  2.2343 -1.1972
 5319SOL     OW16134   3.921   8.729   3.301  0.6756  0.3538  0.3331
 5319SOL    HW116135   3.895   8.634   3.317  1.4944  0.2447  1.1370
 5319SOL    HW216136   3.843   8.780   3.265 -1.1197  0.3745  3.8293
 5320SOL     OW16137   3.031   8.612   4.427  0.2067  0.1716  0.0761
 5320SOL    HW116138   2.931   8.623   4.432  0.2406  0.8350 -0.5423
 5320SOL    HW216139   3.075   8.681   4.484  0.2861 -1.7862  2.5203
 5321SOL     OW16140   3.231   3.209   1.727 -0.6331  0.2078 -0.0292
 5321SOL    HW116141   3.284   3.261   1.659 -0.4823  0.5601  0.3559
 5321SOL    HW216142   3.178   3.138   1.680 -1.2177  1.0170 -0.6231
 5322SOL     OW16143   7.035   2.117   2.073 -0.0263 -0.0279  0.1357
 5322SOL    HW116144   6.961   2.099   2.138  0.2696 -0.7815  0.2779
 5322SOL    HW216145   7.101   2.041   2.076  1.9746  1.6519  1.6918
 5323SOL     OW16146   4.054   1.989   6.266  1.0902 -0.4294  0.0580
 5323SOL    HW116147   4.010   1.910   6.308  0.3852 -0.9574 -1.6078
 5323SOL    HW216148   4.121   1.959   6.198  2.0395  0.4045  0.5895
 5324SOL     OW16149   4.250   6.676   8.391  0.2248  0.5960  0.1221
 5324SOL    HW116150   4.171   6.726   8.353  0.3396  0.1281 -0.7697
 5324SOL    HW216151   4.319   6.665   8.319 -1.1168 -3.6579 -0.7886
 5325SOL     OW16152   1.516   8.650   2.674  0.3863 -0.4864  0.1140
 5325SOL    HW116153   1.419   8.631   2.663  0.5664 -1.7904  0.5583
 5325SOL    HW216154   1.528   8.746   2.699 -0.7991 -0.3447  0.2200
 5326SOL     OW16155   4.175   2.337   1.191 -0.0618  0.3467  0.1208
 5326SOL    HW116156   4.260   2.356   1.240  0.0185  0.6736 -0.1395
 5326SOL    HW216157   4.099   2.385   1.236 -0.1904 -0.2870  0.6082
 5327SOL     OW16158   2.554   4.479   3.224 -1.1124  0.1623  0.8834
 5327SOL    HW116159   2.479   4.457   3.162 -1.0667 -0.7959  1.1568
 5327SOL    HW216160   2.608   4.554   3.186 -1.8841  0.4946  0.4247
 5328SOL     OW16161   1.674   0.826   5.007  0.2548  0.1662 -0.2015
 5328SOL    HW116162   1.702   0.900   5.069 -1.3346  0.3362  0.3470
 5328SOL    HW216163   1.681   0.739   5.056  2.6420 -0.1755 -1.0099
 5329SOL     OW16164   7.946   3.496   2.586  0.0926  0.1730 -0.2768
 5329SOL    HW116165   7.962   3.504   2.488 -3.9373  0.1049 -1.1167
 5329SOL    HW216166   7.893   3.574   2.619  1.3220  0.1860  1.8771
 5330SOL     OW16167   5.612   5.123   7.234 -0.1006  0.5522 -0.3599
 5330SOL    HW116168   5.685   5.055   7.231  2.5668  3.1965  0.4026
 5330SOL    HW216169   5.626   5.192   7.163 -1.4066  1.5482  0.2899
 5331SOL     OW16170   1.906   3.508   1.316  0.5985  0.6876 -0.4064
 5331SOL    HW116171   1.839   3.484   1.245  1.3928  0.6864 -1.1746
 5331SOL    HW216172   1.870   3.482   1.406 -1.5985  3.0609 -0.4553
 5332SOL     OW16173   7.820   6.297   8.321 -0.0268  0.1078  0.2565
 5332SOL    HW116174   7.800   6.355   8.242 -3.0729 -0.9647  0.1047
 5332SOL    HW216175   7.831   6.203   8.291  0.0310 -0.1294  1.0016
 5333SOL     OW16176   2.247   8.788   5.330  0.2039 -0.5347  0.0577
 5333SOL    HW116177   2.287   8.830   5.248 -0.5799  1.4349  0.6373
 5333SOL    HW216178   2.175   8.724   5.302 -1.4745  1.5962 -0.8465
 5334SOL     OW16179   2.838   0.078   7.660 -0.1623 -0.1910  0.7317
 5334SOL    HW116180   2.934   0.089   7.636 -0.5299  2.0292  0.0644
 5334SOL    HW216181   2.827  -0.003   7.717  2.0379 -0.6881  0.5264
 5335SOL     OW16182   8.152   5.262   6.069  0.0015 -0.2868 -0.3467
 5335SOL    HW116183   8.120   5.233   5.979 -1.2506  0.4070 -0.1432
 5335SOL    HW216184   8.090   5.228   6.139 -0.1433  0.8346  0.0910
 5336SOL     OW16185   4.737   4.011   5.703 -0.0345  0.4532 -0.1886
 5336SOL    HW116186   4.810   4.076   5.686 -0.7092  1.3792  0.3605
 5336SOL    HW216187   4.666   4.022   5.633 -0.6638  1.0846  0.5369
 5337SOL     OW16188   5.580   2.682   7.211 -0.1103  0.1061  0.2326
 5337SOL    HW116189   5.527   2.599   7.228 -0.9457  0.7988  1.0747
 5337SOL    HW216190   5.615   2.718   7.297  0.2745  0.6232 -0.1328
 5338SOL     OW16191   3.177   2.707   5.488  0.2423 -0.6675 -0.4476
 5338SOL    HW116192   3.261   2.754   5.515 -1.1898  0.2209  3.0697
 5338SOL    HW216193   3.101   2.772   5.491 -1.3025 -2.4429  1.3694
 5339SOL     OW16194   7.153   5.656   5.323  0.1478  0.5477  0.1086
 5339SOL    HW116195   7.190   5.601   5.397  0.6229  1.0392  0.2445
 5339SOL    HW216196   7.079   5.606   5.277  1.1698 -0.5721 -0.3575
 5340SOL     OW16197   0.592   5.085   6.260 -0.5463 -0.4084 -0.8867
 5340SOL    HW116198   0.640   5.011   6.213  0.9212 -0.1181  0.0981
 5340SOL    HW216199   0.656   5.159   6.281 -0.7548 -1.0451  2.6865
 5341SOL     OW16200   4.679   5.949   4.338 -0.1429 -0.0737  0.0910
 5341SOL    HW116201   4.681   5.895   4.254  2.6887 -0.5198  0.3511
 5341SOL    HW216202   4.684   6.046   4.315 -1.1356 -0.0910 -0.2622
 5342SOL     OW16203   7.690   0.111   2.045  0.2972 -0.1382  0.0540
 5342SOL    HW116204   7.714   0.014   2.046  2.2288  0.2850  0.7944
 5342SOL    HW216205   7.629   0.131   2.122 -0.6024 -0.8634 -0.4631
 5343SOL     OW16206   5.699   0.940   3.786 -0.1034  0.2410 -0.6549
 5343SOL    HW116207   5.768   0.894   3.730 -1.0917  0.5564 -2.1835
 5343SOL    HW216208   5.725   0.934   3.882  1.0568 -1.3354 -1.0288
 5344SOL     OW16209   7.795   6.865   2.240  0.3093 -0.4773 -0.4255
 5344SOL    HW116210   7.799   6.964   2.254 -0.2405 -0.3139 -1.3374
 5344SOL    HW216211   7.775   6.820   2.327  0.7553  0.1939  0.0352
 5345SOL     OW16212   3.593   7.373   2.812  0.3224 -0.2478 -0.7955
 5345SOL    HW116213   3.673   7.317   2.835  0.7945  0.5783 -0.3985
 5345SOL    HW216214   3.602   7.463   2.854 -0.7169 -0.0677 -0.9346
 5346SOL     OW16215   3.235   4.785   3.396 -0.0207  0.1031 -0.9580
 5346SOL    HW116216   3.213   4.846   3.320 -1.8428  1.7552  0.7598
 5346SOL    HW216217   3.295   4.832   3.460  0.5765 -0.8484 -0.7995
 5347SOL     OW16218   7.162   6.533   3.822  0.5004  0.2409 -0.1722
 5347SOL    HW116219   7.064   6.545   3.838 -0.0449  0.7320 -3.2410
 5347SOL    HW216220   7.213   6.564   3.902 -1.7871  0.8883  1.1311
 5348SOL     OW16221   2.291   6.052   7.654  0.4742 -0.0009  0.0185
 5348SOL    HW116222   2.375   6.068   7.602  1.7969 -0.4985  1.8893
 5348SOL    HW216223   2.313   6.007   7.741 -1.7367 -0.1215  0.5923
 5349SOL     OW16224   4.383   5.314   2.010  0.1842  0.8367 -0.1392
 5349SOL    HW116225   4.298   5.265   1.990  0.8564  0.4610 -2.3520
 5349SOL    HW216226   4.363   5.398   2.061 -1.5371  0.9040 -0.8743
 5350SOL     OW16227   0.450   7.604   7.933 -0.2855 -0.3255 -0.2079
 5350SOL    HW116228   0.401   7.639   7.853 -0.2525 -1.6582 -0.8344
 5350SOL    HW216229   0.386   7.557   7.993 -0.6688  2.2342  1.5340
 5351SOL     OW16230   5.094   2.526   1.970  0.2485 -0.0431 -0.0150
 5351SOL    HW116231   5.109   2.473   2.053 -0.5257 -0.4463 -0.1249
 5351SOL    HW216232   5.058   2.466   1.898  0.0102  0.4976 -0.3523
 5352SOL     OW16233   4.788   8.325   0.896  0.1753  0.4601  0.4608
 5352SOL    HW116234   4.791   8.303   0.799  2.0136 -2.8960  1.1214
 5352SOL    HW216235   4.840   8.408   0.913  0.9744  0.3517 -1.2547
 5353SOL     OW16236   6.534   2.319   7.972 -0.0463  0.6316 -0.4514
 5353SOL    HW116237   6.478   2.296   8.052  0.9908 -0.8876 -0.0991
 5353SOL    HW216238   6.476   2.339   7.894 -1.0782  1.4976  0.5124
 5354SOL     OW16239   4.080   5.921   6.762 -0.4070 -0.5939  0.2449
 5354SOL    HW116240   4.052   5.976   6.841 -0.9206  1.3892 -1.2322
 5354SOL    HW216241   4.176   5.896   6.771 -0.5685 -0.7881  1.6836
 5355SOL     OW16242   7.216   3.872   3.140  0.1803 -0.0890 -0.2944
 5355SOL    HW116243   7.251   3.906   3.228  1.8633  0.6806 -1.1995
 5355SOL    HW216244   7.290   3.823   3.092 -0.9603 -1.2483 -0.9291
 5356SOL     OW16245   1.929   6.817   7.741  0.9841  0.2671  0.0694
 5356SOL    HW116246   1.854   6.878   7.716  0.4825  0.1166  1.1463
 5356SOL    HW216247   1.917   6.729   7.696  0.8723  0.4511 -0.2684
 5357SOL     OW16248   7.254   4.652   1.434 -0.1187  0.0046 -0.2087
 5357SOL    HW116249   7.354   4.657   1.434  0.1791 -3.2763 -1.1747
 5357SOL    HW216250   7.219   4.698   1.352  0.5205  1.5777  0.3678
 5358SOL     OW16251   1.160   2.109   1.583  0.4258 -0.1781 -0.8127
 5358SOL    HW116252   1.258   2.121   1.602  0.0974  0.6133  0.5179
 5358SOL    HW216253   1.135   2.014   1.598  0.6000  0.0209  0.8662
 5359SOL     OW16254   1.006   2.650   0.220  0.1311  0.6854  0.4361
 5359SOL    HW116255   1.104   2.634   0.232 -0.3555 -1.7815  1.7115
 5359SOL    HW216256   0.976   2.610   0.133 -0.1117 -0.4557  1.0406
 5360SOL     OW16257   6.174   5.930   0.565  0.2687 -0.4785 -0.5131
 5360SOL    HW116258   6.155   6.009   0.507 -0.1954  0.4246  0.8257
 5360SOL    HW216259   6.154   5.846   0.515 -0.7430  0.2933 -1.4437
 5361SOL     OW16260   6.285   4.678   7.343  0.1685  0.5737  0.2900
 5361SOL    HW116261   6.228   4.601   7.371 -0.8443  0.2857 -2.3396
 5361SOL    HW216262   6.228   4.751   7.304  1.4494  0.6477 -1.5973
 5362SOL     OW16263   8.322   3.970   0.088  0.3299 -0.2957 -0.2279
 5362SOL    HW116264   8.297   3.950  -0.007 -0.5311 -0.0860 -0.0561
 5362SOL    HW216265   8.411   4.016   0.090 -0.3586  1.1759 -1.0791
 5363SOL     OW16266   7.227   1.777   0.618 -0.1126  0.1255  0.2917
 5363SOL    HW116267   7.168   1.700   0.642 -1.2257  0.9371  0.2615
 5363SOL    HW216268   7.196   1.859   0.666  0.5865  0.7137 -0.2396
 5364SOL     OW16269   6.597   6.053   0.180 -0.1698  0.2219  0.1835
 5364SOL    HW116270   6.647   5.967   0.170 -0.8952 -0.0240 -1.7856
 5364SOL    HW216271   6.538   6.049   0.261  1.0299 -0.4774  1.0407
 5365SOL     OW16272   0.694   2.694   7.639 -0.0622  0.0874  0.0161
 5365SOL    HW116273   0.666   2.629   7.710  0.9198 -0.0111  0.3216
 5365SOL    HW216274   0.724   2.779   7.681  2.5230 -0.6938 -0.0991
 5366SOL     OW16275   0.134   6.084   8.370  0.6396 -0.1852  0.0750
 5366SOL    HW116276   0.119   6.175   8.409  0.4070  1.0835 -2.6842
 5366SOL    HW216277   0.062   6.022   8.401 -0.2040  1.0509  0.6643
 5367SOL     OW16278   4.240   3.911   3.678  0.3328  0.5179 -1.0105
 5367SOL    HW116279   4.195   3.823   3.661 -2.2472  1.3983  0.5970
 5367SOL    HW216280   4.223   3.973   3.601 -2.1095  1.0906 -0.1112
 5368SOL     OW16281   0.593   3.825   2.035 -1.2797  0.2264 -0.0876
 5368SOL    HW116282   0.615   3.880   2.116 -3.1223  0.3006  0.3993
 5368SOL    HW216283   0.510   3.860   1.992 -0.9488 -0.5055 -1.3745
 5369SOL     OW16284   5.682   8.170   4.657  0.1197 -0.2106  0.0187
 5369SOL    HW116285   5.751   8.237   4.685  0.3844 -0.2236 -0.5987
 5369SOL    HW216286   5.711   8.079   4.686  0.0581 -0.1373  0.3115
 5370SOL     OW16287   2.383   2.248   7.738 -0.1767 -0.3095 -0.2879
 5370SOL    HW116288   2.354   2.153   7.748 -0.3506 -0.2762 -0.4770
 5370SOL    HW216289   2.426   2.261   7.649  1.8448 -0.7280  0.5691
 5371SOL     OW16290   1.508   4.662   7.269  0.5803 -0.4112 -0.1509
 5371SOL    HW116291   1.483   4.752   7.235  2.2182  0.4648  0.8355
 5371SOL    HW216292   1.590   4.669   7.326  3.0620 -3.0100 -3.0351
 5372SOL     OW16293   7.089   4.069   5.666 -0.0623  0.2058  0.1797
 5372SOL    HW116294   7.051   3.976   5.655  1.3562 -0.1159 -3.6171
 5372SOL    HW216295   7.153   4.070   5.743 -0.6866 -1.7431  0.7946
 5373SOL     OW16296   7.333   5.295   1.590  0.5802  0.3929 -0.0892
 5373SOL    HW116297   7.251   5.317   1.536  0.9613 -1.1306 -1.3826
 5373SOL    HW216298   7.306   5.247   1.673 -0.0285  2.8725  1.2273
 5374SOL     OW16299   7.720   4.012   7.439  0.4163 -0.5987  0.6777
 5374SOL    HW116300   7.773   3.951   7.498 -0.7432 -1.1301  1.2067
 5374SOL    HW216301   7.629   4.026   7.478 -0.5669 -1.3405 -1.2215
 5375SOL     OW16302   8.165   7.176   0.427  0.1777 -0.0882  0.2506
 5375SOL    HW116303   8.065   7.185   0.427 -0.0450 -2.0278  0.9457
 5375SOL    HW216304   8.193   7.124   0.508  1.6368 -0.6366 -0.5795
 5376SOL     OW16305   1.570   7.171   1.959  0.1716 -0.4016 -0.0401
 5376SOL    HW116306   1.478   7.131   1.970 -0.1036  0.5605  1.5572
 5376SOL    HW216307   1.589   7.231   2.037  2.0891 -0.4086 -0.4638
 5377SOL     OW16308   6.742   3.100   0.645  0.7784  0.3686  0.5680
 5377SOL    HW116309   6.714   3.192   0.672 -4.6383 -0.6253 -0.6379
 5377SOL    HW216310   6.775   3.102   0.550  1.1672  1.0486  0.7047
 5378SOL     OW16311   0.859   3.944   2.540 -0.1293  0.7131 -0.1190
 5378SOL    HW116312   0.957   3.961   2.548 -0.7157  3.4429  3.8550
 5378SOL    HW216313   0.839   3.852   2.572  0.9886  0.6538  0.4730
 5379SOL     OW16314   2.136   4.198   5.687  0.3529  0.4099  0.5261
 5379SOL    HW116315   2.077   4.175   5.609  1.4290 -2.9430  0.5231
 5379SOL    HW216316   2.214   4.252   5.656 -0.6910  1.5466 -0.1649
 5380SOL     OW16317   5.335   2.142   3.567 -0.2895 -0.2057 -0.1034
 5380SOL    HW116318   5.304   2.154   3.473  2.8077  2.2169 -0.9546
 5380SOL    HW216319   5.306   2.221   3.622  0.2111 -0.3048  0.3082
 5381SOL     OW16320   5.037   5.786   0.165 -0.0924 -0.3271 -0.0769
 5381SOL    HW116321   5.020   5.735   0.081 -1.6181  0.7217 -0.4305
 5381SOL    HW216322   5.092   5.729   0.227 -0.4815 -1.8173 -1.0356
 5382SOL     OW16323   7.398   8.786   2.898 -0.0665 -0.1140 -0.1110
 5382SOL    HW116324   7.449   8.715   2.850  0.9231 -1.4527  2.7208
 5382SOL    HW216325   7.439   8.804   2.987 -1.5545  2.5387  0.1694
 5383SOL     OW16326   6.453   4.303   0.185 -0.1725 -0.2099  0.0360
 5383SOL    HW116327   6.484   4.320   0.279  1.1472 -0.4792 -0.3375
 5383SOL    HW216328   6.452   4.389   0.135 -0.6281 -0.1065  0.2160
 5384SOL     OW16329   5.275   7.211   5.194  0.0072  0.2708 -0.3286
 5384SOL    HW116330   5.307   7.124   5.156  0.4185 -0.2116  1.0543
 5384SOL    HW216331   5.176   7.209   5.203  0.0890 -0.4803  0.6348
 5385SOL     OW16332   0.676   1.450   6.269  0.2152 -0.3421 -0.2673
 5385SOL    HW116333   0.752   1.424   6.210 -0.4093  0.7992 -1.6290
 5385SOL    HW216334   0.602   1.489   6.214 -0.1844  1.2887  1.3070
 5386SOL     OW16335   6.747   6.732   2.610  0.1206  0.3403  0.5305
 5386SOL    HW116336   6.817   6.763   2.675 -0.7502  2.4186  0.5665
 5386SOL    HW216337   6.677   6.803   2.600 -1.4536 -1.2502 -0.2998
 5387SOL     OW16338   0.408   1.884   7.783 -0.0239 -0.0182 -0.3396
 5387SOL    HW116339   0.477   1.833   7.733  0.8941  0.4072  0.4503
 5387SOL    HW216340   0.327   1.897   7.725  0.6460 -0.3086 -1.3675
 5388SOL     OW16341   2.926   2.725   2.821 -0.0597  0.3387  0.2303
 5388SOL    HW116342   2.990   2.683   2.756  1.4538  1.2160  1.0830
 5388SOL    HW216343   2.833   2.695   2.801  0.5158 -0.3919 -1.5346
 5389SOL     OW16344   4.308   8.581   2.170 -0.1941  0.1538  0.3326
 5389SOL    HW116345   4.236   8.608   2.106  0.4770 -1.0575 -0.9938
 5389SOL    HW216346   4.275   8.506   2.228 -0.3252  0.2536  0.3865
 5390SOL     OW16347   5.814   1.658   4.653  0.1202 -0.5693  0.0695
 5390SOL    HW116348   5.829   1.648   4.751 -0.8715 -1.4263  0.1428
 5390SOL    HW216349   5.716   1.649   4.633  0.4667 -2.0081 -1.1629
 5391SOL     OW16350   3.750   7.150   4.213  0.0454  0.3457  0.1243
 5391SOL    HW116351   3.722   7.186   4.303 -0.4444 -1.0625  0.5713
 5391SOL    HW216352   3.795   7.061   4.226 -3.1582 -1.6571 -1.1720
 5392SOL     OW16353   4.431   1.232   6.365  0.7128  0.0269 -0.0016
 5392SOL    HW116354   4.373   1.302   6.324 -1.4139 -0.9549  1.1712
 5392SOL    HW216355   4.527   1.261   6.361  0.1885  1.7098 -2.0150
 5393SOL     OW16356   5.034   7.041   2.720 -0.0660  0.1442 -0.0663
 5393SOL    HW116357   5.058   7.132   2.754  2.0372 -0.7932  1.1791
 5393SOL    HW216358   5.058   7.034   2.623 -0.7158  1.0462 -0.3058
 5394SOL     OW16359   5.149   6.432   6.042  0.2878 -0.2777 -0.1862
 5394SOL    HW116360   5.064   6.414   6.090  0.6786 -2.4839 -0.1809
 5394SOL    HW216361   5.173   6.528   6.050 -1.6673  0.1807  0.6635
 5395SOL     OW16362   1.276   0.349   3.591  0.3132  0.0521  0.4484
 5395SOL    HW116363   1.366   0.358   3.549  1.2474  4.1828  2.7543
 5395SOL    HW216364   1.285   0.319   3.686 -0.6130  1.1804  0.9208
 5396SOL     OW16365   7.857   8.171   6.494  0.3560  0.1229 -0.4914
 5396SOL    HW116366   7.767   8.137   6.467  0.8490 -1.3896 -0.3116
 5396SOL    HW216367   7.923   8.096   6.494  0.4670 -0.1308  4.6587
 5397SOL     OW16368   5.547   8.343   8.574 -0.3546  0.1959 -0.4570
 5397SOL    HW116369   5.565   8.253   8.613 -2.3440  0.4789  1.2738
 5397SOL    HW216370   5.539   8.410   8.647  3.0735  2.3090 -1.7511
 5398SOL     OW16371   4.181   5.665   3.616 -0.1134 -0.0515  0.3834
 5398SOL    HW116372   4.131   5.739   3.660 -0.4947  0.1558 -0.3695
 5398SOL    HW216373   4.258   5.637   3.674 -0.0112  0.8766  0.7181
 5399SOL     OW16374   6.557   5.698   1.519  0.3185 -0.0356 -0.1393
 5399SOL    HW116375   6.606   5.616   1.546 -0.6715 -0.3326  0.8390
 5399SOL    HW216376   6.619   5.777   1.521  1.9067 -1.0368 -3.3359
 5400SOL     OW16377   7.917   3.939   5.818 -0.5833  0.3411 -0.2474
 5400SOL    HW116378   7.872   3.853   5.791  0.3253 -0.0574 -0.5278
 5400SOL    HW216379   7.891   4.011   5.753 -0.2869 -0.0451 -0.8046
 5401SOL     OW16380   1.255   7.045   4.849  0.0715 -0.3290 -0.2140
 5401SOL    HW116381   1.223   7.008   4.937  0.1037 -0.0500 -0.0836
 5401SOL    HW216382   1.344   7.088   4.861  0.4249 -0.9674 -0.5485
 5402SOL     OW16383   1.948   0.682   2.829 -0.5818 -0.0339  0.2110
 5402SOL    HW116384   1.867   0.729   2.795 -0.5598 -0.0894  0.0818
 5402SOL    HW216385   2.012   0.667   2.754 -0.2328  0.4528  0.4046
 5403SOL     OW16386   6.040   8.248   2.952  0.3497  0.6729 -0.2719
 5403SOL    HW116387   6.035   8.266   3.051 -2.1758 -0.1755 -0.1899
 5403SOL    HW216388   5.994   8.321   2.902 -1.4888 -0.5860 -0.5374
 5404SOL     OW16389   0.509   8.078   1.135 -0.0486  0.3103  0.7012
 5404SOL    HW116390   0.421   8.104   1.174 -0.1389 -1.6690  1.9704
 5404SOL    HW216391   0.536   8.145   1.066 -2.8372  0.6132 -0.2299
 5405SOL     OW16392   1.298   2.315   0.472 -0.2455 -0.3628 -0.6061
 5405SOL    HW116393   1.263   2.358   0.389 -0.2054 -0.9151 -0.9166
 5405SOL    HW216394   1.222   2.275   0.524  0.0103 -4.4406 -2.8874
 5406SOL     OW16395   5.883   8.075   5.650  0.0528  0.1996 -0.5920
 5406SOL    HW116396   5.848   8.001   5.593  1.7895 -0.9496 -0.2419
 5406SOL    HW216397   5.940   8.136   5.595 -1.7331  1.5799 -0.9791
 5407SOL     OW16398   5.229   8.637   5.987 -0.1477 -0.0482  0.0477
 5407SOL    HW116399   5.176   8.553   5.971  0.3606 -0.0772 -1.7789
 5407SOL    HW216400   5.186   8.691   6.059 -1.1749 -1.3029  0.4074
 5408SOL     OW16401   5.351   7.555   7.140  0.1656 -0.2744  0.0372
 5408SOL    HW116402   5.409   7.474   7.139  0.1400 -0.2906 -1.3145
 5408SOL    HW216403   5.256   7.527   7.152  0.2750 -0.3401  0.8396
 5409SOL     OW16404   3.681   2.061   3.901 -0.3859 -0.0584 -0.2443
 5409SOL    HW116405   3.594   2.073   3.950 -1.7302 -1.5763 -2.1153
 5409SOL    HW216406   3.664   2.056   3.803  1.7113 -1.2842 -0.6096
 5410SOL     OW16407   1.963   7.793   7.330 -0.0873  0.2493 -0.5328
 5410SOL    HW116408   1.874   7.810   7.372  1.1036  0.8717  1.9124
 5410SOL    HW216409   2.026   7.757   7.398  2.0914  1.7066 -1.6542
 5411SOL     OW16410   0.166   6.167   5.128 -0.0886 -0.0914  0.7279
 5411SOL    HW116411   0.197   6.080   5.164  0.9662 -0.5582 -1.1694
 5411SOL    HW216412   0.066   6.171   5.129 -0.2552 -2.1951 -0.9602
 5412SOL     OW16413   0.131   8.633   2.787 -0.3960 -0.2339 -0.3483
 5412SOL    HW116414   0.045   8.586   2.804 -0.5314  0.3687  0.6903
 5412SOL    HW216415   0.198   8.568   2.751 -1.3443 -0.6504 -1.4138
 5413SOL     OW16416   8.005   5.535   4.082  0.3973 -0.2727 -0.1718
 5413SOL    HW116417   8.028   5.554   4.177  0.1449  1.4742 -0.4403
 5413SOL    HW216418   7.918   5.484   4.078  0.0097  0.3184  0.5068
 5414SOL     OW16419   5.285   5.826   7.905  0.0643  0.6669 -0.3961
 5414SOL    HW116420   5.354   5.835   7.976  1.4487  4.1550 -1.9293
 5414SOL    HW216421   5.329   5.797   7.819 -0.3913  2.2487 -1.2130
 5415SOL     OW16422   5.103   8.137   5.070 -0.2709 -0.2369  0.1285
 5415SOL    HW116423   5.161   8.208   5.111 -0.1637 -0.2595  0.0162
 5415SOL    HW216424   5.089   8.064   5.136 -0.3067 -0.1538  0.2130
 5416SOL     OW16425   4.403   2.107   0.121  0.2426  0.1475 -0.5205
 5416SOL    HW116426   4.366   2.199   0.134 -2.0036 -0.7902  0.2558
 5416SOL    HW216427   4.332   2.039   0.143  1.9441 -1.7840 -0.6839
 5417SOL     OW16428   6.879   3.459   4.470  0.4140 -0.6888  0.0521
 5417SOL    HW116429   6.971   3.432   4.445  0.4669 -0.4725  0.0068
 5417SOL    HW216430   6.860   3.433   4.565  0.1454 -1.6810 -0.2662
 5418SOL     OW16431   0.876   1.995   7.154 -0.0683 -0.0650  0.0344
 5418SOL    HW116432   0.936   1.923   7.119  0.9530 -0.9427  3.2590
 5418SOL    HW216433   0.924   2.083   7.151 -0.5522  0.1712 -1.9994
 5419SOL     OW16434   7.030   6.339   6.113 -0.1500  0.3347  0.4257
 5419SOL    HW116435   6.934   6.311   6.111  0.2844 -1.2728  0.1527
 5419SOL    HW216436   7.065   6.344   6.019 -0.2480  2.0750  0.4487
 5420SOL     OW16437   0.249   6.454   5.491 -0.4658  0.1018 -0.6941
 5420SOL    HW116438   0.278   6.429   5.399 -0.2607 -0.2257 -0.5439
 5420SOL    HW216439   0.274   6.549   5.510 -0.3300  0.1073 -0.9038
 5421SOL     OW16440   1.261   4.887   5.566 -0.7248  0.0875  0.7490
 5421SOL    HW116441   1.218   4.825   5.632 -0.4285 -0.2888  0.5912
 5421SOL    HW216442   1.275   4.840   5.479  2.1313 -0.6104  1.4652
 5422SOL     OW16443   7.052   5.572   2.059 -0.0659 -0.4172  0.3503
 5422SOL    HW116444   6.993   5.634   2.110 -1.3485 -0.3954 -1.1064
 5422SOL    HW216445   7.138   5.560   2.109 -0.9366  0.2113  2.1038
 5423SOL     OW16446   4.986   4.354   6.317  0.2688 -0.3000 -0.1171
 5423SOL    HW116447   5.050   4.422   6.351 -0.9037  1.1396 -0.6755
 5423SOL    HW216448   5.035   4.289   6.258  1.2218  0.7327 -0.5027
 5424SOL     OW16449   7.096   4.240   5.218  0.2301 -0.2666  0.1179
 5424SOL    HW116450   7.160   4.312   5.246  2.9148 -1.0982 -3.2642
 5424SOL    HW216451   7.116   4.156   5.268 -0.1113  0.1846  1.0397
 5425SOL     OW16452   7.339   0.384   4.865  0.4364 -0.2032 -0.2958
 5425SOL    HW116453   7.269   0.415   4.801  0.6523 -0.4816 -0.6686
 5425SOL    HW216454   7.343   0.285   4.864  0.9676 -0.1794 -0.4109
 5426SOL     OW16455   5.336   2.075   4.824 -0.1147 -0.1463  0.4065
 5426SOL    HW116456   5.248   2.106   4.787 -0.4058  0.5580  1.6309
 5426SOL    HW216457   5.386   2.024   4.754 -1.5774 -0.7218 -0.2424
 5427SOL     OW16458   2.839   6.340   2.380  0.1063 -0.1381 -0.0050
 5427SOL    HW116459   2.777   6.312   2.306  0.0929 -0.4292  0.1147
 5427SOL    HW216460   2.875   6.258   2.426 -1.7968  0.0215  1.9050
 5428SOL     OW16461   2.635   0.200   6.792  0.3597 -0.3722 -0.3222
 5428SOL    HW116462   2.622   0.273   6.724  0.6337 -0.3292 -0.3307
 5428SOL    HW216463   2.568   0.211   6.865  0.5890  0.0688 -0.1703
 5429SOL     OW16464   8.457   4.555   6.280 -0.1608 -0.8586 -0.3330
 5429SOL    HW116465   8.478   4.551   6.182 -2.3972 -1.4268 -0.8517
 5429SOL    HW216466   8.414   4.643   6.300  0.1111 -0.8264  0.1200
 5430SOL     OW16467   6.371   5.456   6.527 -0.7562  0.2634 -0.5175
 5430SOL    HW116468   6.447   5.516   6.502  0.4712 -0.3193  1.5825
 5430SOL    HW216469   6.310   5.504   6.590 -1.6691  0.4111 -1.4817
 5431SOL     OW16470   7.890   6.894   7.122 -0.6122  0.0991  0.1709
 5431SOL    HW116471   7.944   6.978   7.119 -1.4280  0.6018 -2.2349
 5431SOL    HW216472   7.923   6.830   7.053 -1.6744 -0.4781  0.1742
 5432SOL     OW16473   4.947   5.303   2.925 -0.5057  0.0920 -0.3638
 5432SOL    HW116474   4.940   5.222   2.866  1.0575 -0.2767 -0.0819
 5432SOL    HW216475   4.985   5.277   3.014 -3.7629  0.4480  1.2975
 5433SOL     OW16476   3.035   5.960   5.280  0.1644  0.4481  0.0176
 5433SOL    HW116477   3.038   5.983   5.183  0.6891 -0.0268 -0.0868
 5433SOL    HW216478   3.122   5.919   5.307  0.5244  1.7474  0.9889
 5434SOL     OW16479   8.091   6.319   1.327 -0.1343 -0.1681 -0.5643
 5434SOL    HW116480   8.060   6.391   1.265 -3.3241 -3.2730 -2.9530
 5434SOL    HW216481   8.172   6.275   1.289  0.2412  0.4007 -0.4449
 5435SOL     OW16482   2.155   7.138   8.074 -0.0805  0.1020 -0.2557
 5435SOL    HW116483   2.155   7.184   8.163 -1.4988 -1.9555  0.8855
 5435SOL    HW216484   2.138   7.205   8.002 -1.2903  1.4828  1.2296
 5436SOL     OW16485   7.591   4.511   3.899  0.3708 -0.2557  0.0835
 5436SOL    HW116486   7.566   4.427   3.849  0.5068 -1.3108  1.7334
 5436SOL    HW216487   7.528   4.525   3.975  0.8604  0.6883  0.3324
 5437SOL     OW16488   3.299   2.497   8.350 -0.1341 -0.1333  0.0323
 5437SOL    HW116489   3.374   2.449   8.305 -0.5784 -0.2977 -0.5327
 5437SOL    HW216490   3.212   2.468   8.311 -0.5438 -0.4496  1.1455
 5438SOL     OW16491   7.719   0.360   4.661 -0.1440  0.2292 -0.7041
 5438SOL    HW116492   7.785   0.385   4.590 -0.8554 -0.2127 -1.5478
 5438SOL    HW216493   7.627   0.357   4.621 -0.7628  1.3060  0.5562
 5439SOL     OW16494   4.276   3.976   0.665  0.0653 -0.4722 -0.2194
 5439SOL    HW116495   4.256   3.957   0.761 -1.2854 -1.4173 -0.6554
 5439SOL    HW216496   4.256   4.071   0.644  3.1804  0.5959  1.0859
 5440SOL     OW16497   4.451   8.373   4.202 -0.2205 -0.7764  0.6030
 5440SOL    HW116498   4.529   8.436   4.210  0.3058 -1.5163  1.5098
 5440SOL    HW216499   4.414   8.378   4.110  0.4759  0.0842  0.3478
 5441SOL     OW16500   7.434   5.111   6.885  0.5772 -0.0294  0.0039
 5441SOL    HW116501   7.527   5.135   6.856  0.9670  0.1609  1.3468
 5441SOL    HW216502   7.376   5.192   6.878  1.3684  0.8390  2.4270
 5442SOL     OW16503   5.638   7.065   2.086  0.7065 -0.3787 -0.0119
 5442SOL    HW116504   5.553   7.042   2.133  0.5207  0.5459  0.1323
 5442SOL    HW216505   5.716   7.034   2.140  0.4643 -0.9460  0.0123
 5443SOL     OW16506   6.156   1.125   6.581 -0.2165 -0.3109  0.1008
 5443SOL    HW116507   6.171   1.028   6.595 -1.7215 -0.4138  1.2113
 5443SOL    HW216508   6.080   1.139   6.517  0.3428  0.1422 -0.4793
 5444SOL     OW16509   4.110   7.030   1.013  0.3465 -0.4609  0.2036
 5444SOL    HW116510   4.053   7.099   1.057  0.6607 -0.0323 -0.0448
 5444SOL    HW216511   4.069   6.939   1.024 -0.4904 -0.1351 -0.1514
 5445SOL     OW16512   1.133   7.391   5.986  0.8853 -0.0100  0.3040
 5445SOL    HW116513   1.070   7.331   5.937  0.7859 -0.7376  1.2946
 5445SOL    HW216514   1.208   7.337   6.025  2.0974  0.8265 -0.7689
 5446SOL     OW16515   0.795   4.036   4.867 -0.0230 -0.0520  0.2526
 5446SOL    HW116516   0.739   3.976   4.810 -2.1159  1.6258  0.4128
 5446SOL    HW216517   0.808   4.124   4.820 -0.0641  0.6429  1.4955
 5447SOL     OW16518   5.580   8.487   0.840 -0.8042 -0.4297 -0.0562
 5447SOL    HW116519   5.489   8.526   0.858 -0.7656 -1.6077  3.2576
 5447SOL    HW216520   5.576   8.388   0.849  0.6623 -0.5937 -0.9073
 5448SOL     OW16521   4.315   1.679   6.483 -0.3636  0.2467 -0.2528
 5448SOL    HW116522   4.226   1.702   6.523 -1.6403  0.9952 -3.2217
 5448SOL    HW216523   4.386   1.688   6.552 -2.2273  2.4990  1.5421
 5449SOL     OW16524   7.570   5.134   0.239 -0.4525  0.8766  0.4017
 5449SOL    HW116525   7.586   5.232   0.224 -0.6574  0.9852  0.8922
 5449SOL    HW216526   7.482   5.108   0.198  0.5688  0.4345 -1.6444
 5450SOL     OW16527   8.823   3.383   7.982  0.1995  0.0729 -0.5328
 5450SOL    HW116528   8.788   3.348   7.895 -1.0267 -0.5378  0.1782
 5450SOL    HW216529   8.767   3.461   8.011  0.8939  0.5724 -0.5175
 5451SOL     OW16530   4.110   5.014   3.238 -0.0089  0.7610  0.4182
 5451SOL    HW116531   4.041   4.983   3.304  0.2910 -0.8840 -0.0074
 5451SOL    HW216532   4.176   4.941   3.222 -0.1172  1.0806 -1.7530
 5452SOL     OW16533   2.609   0.547   7.863  0.5248  0.3920  0.0991
 5452SOL    HW116534   2.647   0.470   7.914 -0.0250 -0.3223 -0.5585
 5452SOL    HW216535   2.681   0.590   7.809  0.5128 -0.6976 -0.8177
 5453SOL     OW16536   1.572   5.893   3.084 -0.0384  0.2035  0.0506
 5453SOL    HW116537   1.501   5.835   3.044 -0.1728  0.5097 -0.1600
 5453SOL    HW216538   1.532   5.981   3.111  0.1535  0.1823  0.4099
 5454SOL     OW16539   5.857   3.528   4.660  0.0185 -0.0419 -0.1231
 5454SOL    HW116540   5.834   3.588   4.737  0.7660  0.2946 -0.1464
 5454SOL    HW216541   5.784   3.530   4.593 -1.0041 -0.9417  0.9266
 5455SOL     OW16542   4.875   7.277   3.646 -0.2583  0.0711 -0.0821
 5455SOL    HW116543   4.884   7.311   3.739  2.2739 -2.4652  0.7325
 5455SOL    HW216544   4.896   7.350   3.581  0.3095  1.2629  1.3928
 5456SOL     OW16545   6.722   8.825   5.265  0.4802 -0.2318 -0.1768
 5456SOL    HW116546   6.655   8.887   5.307 -0.5318 -0.7944 -0.9251
 5456SOL    HW216547   6.676   8.742   5.234  1.3207 -0.1639 -1.7103
 5457SOL     OW16548   2.757   7.622   1.775  0.0861  0.0876 -0.4969
 5457SOL    HW116549   2.820   7.550   1.745  1.6054  0.7692  0.8869
 5457SOL    HW216550   2.772   7.705   1.722 -0.4694 -0.0906 -0.9403
 5458SOL     OW16551   2.163   1.744   4.993  0.4023 -0.2506 -0.4796
 5458SOL    HW116552   2.146   1.663   5.049  1.3562 -0.5590 -0.6039
 5458SOL    HW216553   2.184   1.822   5.052 -0.2362 -0.1635 -0.3673
 5459SOL     OW16554   7.004   2.516   2.788  0.0245  0.3712  0.1762
 5459SOL    HW116555   6.929   2.528   2.852 -0.0637  0.9942 -0.0302
 5459SOL    HW216556   6.967   2.492   2.698  0.1228 -0.0963  0.2588
 5460SOL     OW16557   7.518   7.525   4.926  0.2828 -0.2753  0.2178
 5460SOL    HW116558   7.499   7.622   4.909 -0.3443 -0.0773  1.9279
 5460SOL    HW216559   7.547   7.482   4.840  0.0910  1.2981 -0.6797
 5461SOL     OW16560   3.893   1.638   5.498 -0.6589  0.3490  0.1845
 5461SOL    HW116561   3.968   1.681   5.548 -1.3216  1.3871  0.2943
 5461SOL    HW216562   3.854   1.703   5.434 -1.4696 -0.1911  0.1205
 5462SOL     OW16563   1.785   8.170   6.182  0.3535 -0.9034 -0.6384
 5462SOL    HW116564   1.823   8.224   6.107  0.9139 -0.5713 -0.1199
 5462SOL    HW216565   1.687   8.189   6.190  0.2159 -1.1918 -1.4925
 5463SOL     OW16566   3.534   8.515   0.784 -0.4929  0.1237 -0.1074
 5463SOL    HW116567   3.597   8.439   0.767 -1.1817 -0.1052 -1.7614
 5463SOL    HW216568   3.583   8.602   0.771 -0.5538 -0.0532 -1.6689
 5464SOL     OW16569   2.945   0.501   7.436  0.0841 -0.0350  0.4743
 5464SOL    HW116570   2.915   0.455   7.353  1.8133 -0.9281  0.3157
 5464SOL    HW216571   2.899   0.459   7.515  1.0504 -1.5666  0.2653
 5465SOL     OW16572   5.169   3.787   6.138 -0.6123 -0.4851 -0.1584
 5465SOL    HW116573   5.121   3.793   6.050  1.3295 -2.0982 -1.4012
 5465SOL    HW216574   5.234   3.862   6.145  1.1577 -1.8290 -1.3921
 5466SOL     OW16575   5.216   1.240   2.766 -0.1954  0.3767 -0.2289
 5466SOL    HW116576   5.263   1.309   2.710 -0.3276  1.3029  0.7625
 5466SOL    HW216577   5.162   1.180   2.707 -1.8929  2.5145 -0.9663
 5467SOL     OW16578   8.690   7.258   8.367  0.2060  0.0321  0.2927
 5467SOL    HW116579   8.648   7.328   8.309  0.0987  0.4918  0.9183
 5467SOL    HW216580   8.624   7.229   8.436 -0.8443 -2.8769 -1.7537
 5468SOL     OW16581   5.913   0.539   8.695  0.1428  0.1273  0.2970
 5468SOL    HW116582   5.996   0.548   8.751  1.1587  0.2284 -1.1607
 5468SOL    HW216583   5.915   0.452   8.646 -1.5194 -0.6907  1.6156
 5469SOL     OW16584   6.864   2.228   8.605  0.0887 -0.3586 -0.4327
 5469SOL    HW116585   6.808   2.146   8.619 -0.5145  0.1874  0.4885
 5469SOL    HW216586   6.839   2.271   8.519 -1.4211  0.2343  0.2638
 5470SOL     OW16587   3.144   7.340   3.330  0.1842  0.3002 -0.1484
 5470SOL    HW116588   3.226   7.307   3.376  1.6301  1.0566 -2.0404
 5470SOL    HW216589   3.098   7.263   3.285  1.8502  0.2774 -1.9796
 5471SOL     OW16590   2.352   7.884   0.488 -0.0925  0.0571  0.0659
 5471SOL    HW116591   2.312   7.799   0.522 -2.6558  0.3242 -1.9775
 5471SOL    HW216592   2.424   7.863   0.421 -0.1262 -0.4784  0.1932
 5472SOL     OW16593   1.564   7.451   6.178 -0.1148 -0.3033 -0.1251
 5472SOL    HW116594   1.540   7.457   6.275  0.1653  3.8304 -0.1137
 5472SOL    HW216595   1.627   7.525   6.155  1.4945 -2.4018 -3.1089
 5473SOL     OW16596   7.975   2.770   6.224  0.2256  0.4114 -0.5309
 5473SOL    HW116597   8.039   2.717   6.170  0.7845  1.0520 -0.5069
 5473SOL    HW216598   7.997   2.760   6.321 -0.4042 -0.2549 -0.4482
 5474SOL     OW16599   4.906   2.311   0.806  0.0808  0.3336  0.5162
 5474SOL    HW116600   5.003   2.297   0.822  0.1739  0.3415 -0.0168
 5474SOL    HW216601   4.872   2.242   0.741  0.3564  1.9724 -1.4817
 5475SOL     OW16602   3.304   4.180   6.287 -0.6200 -0.0742 -0.0334
 5475SOL    HW116603   3.221   4.160   6.340 -0.0975 -3.2595 -0.2010
 5475SOL    HW216604   3.357   4.251   6.333 -2.6063  0.8523  0.9568
 5476SOL     OW16605   6.524   4.930   3.128 -0.1967 -0.5996  0.4437
 5476SOL    HW116606   6.507   4.835   3.154  0.5871 -1.0088 -0.4793
 5476SOL    HW216607   6.456   4.957   3.060  1.1682 -1.4112 -1.3315
 5477SOL     OW16608   8.510   5.664   6.329 -0.8142 -0.2388 -0.3130
 5477SOL    HW116609   8.581   5.605   6.290 -2.2943 -1.1706 -1.7484
 5477SOL    HW216610   8.527   5.759   6.304 -0.3439 -0.5180 -1.0689
 5478SOL     OW16611   0.662   7.838   2.882 -0.3634  0.7123  0.7538
 5478SOL    HW116612   0.687   7.865   2.789 -0.3620 -2.4378 -0.2807
 5478SOL    HW216613   0.680   7.740   2.894 -2.3037  0.5840  3.4077
 5479SOL     OW16614   3.988   0.391   3.221 -0.3397 -0.1532 -0.0985
 5479SOL    HW116615   3.899   0.360   3.253 -0.9276 -1.5322 -2.8005
 5479SOL    HW216616   4.039   0.314   3.183  2.0867  0.5997  1.4141
 5480SOL     OW16617   7.084   6.232   2.429  0.3075  0.3021  0.3450
 5480SOL    HW116618   7.126   6.153   2.473  0.4333  0.6430  0.8445
 5480SOL    HW216619   7.155   6.300   2.409 -0.0181  0.9694  1.3841
 5481SOL     OW16620   2.595   6.185   8.724 -0.2910 -0.5001 -0.1398
 5481SOL    HW116621   2.522   6.144   8.670 -0.0436 -0.9380 -0.1473
 5481SOL    HW216622   2.661   6.114   8.751 -0.0840 -0.1815  0.2089
 5482SOL     OW16623   1.833   4.767   3.756  0.3965  0.3132  0.0241
 5482SOL    HW116624   1.745   4.754   3.708 -0.3510  0.3496  1.3463
 5482SOL    HW216625   1.844   4.695   3.824  1.5316  0.1721 -0.2844
 5483SOL     OW16626   0.382   3.298   3.916 -0.1650  0.3116  0.0255
 5483SOL    HW116627   0.365   3.352   3.999 -1.2390 -0.4858  0.3584
 5483SOL    HW216628   0.388   3.201   3.941 -0.2164  0.0899 -0.8002
 5484SOL     OW16629   3.910   6.727   0.698  0.3345  0.5084 -0.2089
 5484SOL    HW116630   3.917   6.707   0.600 -0.5487  1.7009 -0.5476
 5484SOL    HW216631   3.971   6.802   0.721 -1.0985  1.7835 -0.3661
 5485SOL     OW16632   4.424   4.930   0.948  0.7331  0.0184 -0.1540
 5485SOL    HW116633   4.408   4.856   1.013  0.3358  1.2092  1.1552
 5485SOL    HW216634   4.366   4.916   0.867 -0.1940 -0.4944  0.5816
 5486SOL     OW16635   2.466   1.586   1.417 -0.0175  0.2930  0.6742
 5486SOL    HW116636   2.387   1.564   1.358  1.6106 -0.9545 -1.1659
 5486SOL    HW216637   2.437   1.651   1.487 -2.1533  1.7214 -1.3663
 5487SOL     OW16638   4.559   8.765   4.974  0.1270 -0.2588 -0.3806
 5487SOL    HW116639   4.526   8.738   5.065 -1.1641  0.4591 -0.6126
 5487SOL    HW216640   4.572   8.864   4.972  1.8838 -0.4590 -0.4561
 5488SOL     OW16641   4.314   1.018   2.840 -0.6415 -0.2000  0.1867
 5488SOL    HW116642   4.253   0.988   2.766  0.3139  0.3278 -0.8459
 5488SOL    HW216643   4.344   1.112   2.822 -0.1407 -0.1749  1.0921
 5489SOL     OW16644   5.389   5.019   6.709  0.4048  0.0674 -0.2788
 5489SOL    HW116645   5.325   5.085   6.750  0.9939  0.5589 -0.1336
 5489SOL    HW216646   5.416   4.952   6.779  1.6568  1.0942  0.2482
 5490SOL     OW16647   6.351   8.174   2.512  0.4029  0.3928  0.2570
 5490SOL    HW116648   6.424   8.221   2.562 -0.7476  1.3796  1.0807
 5490SOL    HW216649   6.263   8.207   2.545 -0.4324 -1.2100 -0.2938
 5491SOL     OW16650   7.747   1.033   6.038  0.0463 -0.1016  0.2210
 5491SOL    HW116651   7.820   1.098   6.016 -1.1270  0.4564 -2.4938
 5491SOL    HW216652   7.737   0.969   5.962 -1.5061 -0.9043  1.0658
 5492SOL     OW16653   4.676   3.110   5.839 -0.6773  0.7192 -0.2059
 5492SOL    HW116654   4.674   3.196   5.788 -1.1809  0.3452 -0.8335
 5492SOL    HW216655   4.763   3.102   5.888  0.3585  0.5463 -1.9816
 5493SOL     OW16656   3.881   0.468   0.643 -0.0966  0.1658  0.5272
 5493SOL    HW116657   3.908   0.449   0.737 -2.2091 -0.8997  0.9624
 5493SOL    HW216658   3.866   0.382   0.594  0.5555  0.7104 -0.6997
 5494SOL     OW16659   8.023   2.833   2.779  0.3438 -0.5498 -0.0915
 5494SOL    HW116660   8.066   2.776   2.709  0.9710 -1.0683  0.7029
 5494SOL    HW216661   7.980   2.912   2.736  0.6407 -0.9106 -1.0680
 5495SOL     OW16662   8.062   1.284   1.906  0.3651  0.0699 -0.0202
 5495SOL    HW116663   8.089   1.188   1.919 -0.0839 -0.1234 -0.4429
 5495SOL    HW216664   7.963   1.292   1.920  0.3338  0.3889 -0.4013
 5496SOL     OW16665   0.469   2.252   7.883 -0.3979 -0.3438  0.1065
 5496SOL    HW116666   0.460   2.159   7.847 -3.3771 -0.1521  0.1063
 5496SOL    HW216667   0.450   2.318   7.810  0.6418  0.2408  0.3528
 5497SOL     OW16668   8.700   8.398   6.825 -0.4499 -0.1188 -0.0592
 5497SOL    HW116669   8.745   8.352   6.902 -1.6772 -0.2113  0.6196
 5497SOL    HW216670   8.648   8.476   6.859 -0.9023 -0.0839 -0.8194
 5498SOL     OW16671   3.877   2.415   4.935  0.3741 -0.0423 -0.0740
 5498SOL    HW116672   3.933   2.415   5.017  1.3610  0.5348 -0.7294
 5498SOL    HW216673   3.831   2.326   4.926  0.5543 -0.2363  0.8915
 5499SOL     OW16674   1.948   6.870   5.104  0.5452  0.0964  0.2471
 5499SOL    HW116675   1.857   6.899   5.074  0.2738  0.7582  1.6645
 5499SOL    HW216676   1.990   6.815   5.032 -0.8837 -0.0380 -0.5233
 5500SOL     OW16677   4.519   8.109   8.148 -0.0850 -0.0118 -0.3204
 5500SOL    HW116678   4.427   8.129   8.182 -0.4077  0.1742 -1.2728
 5500SOL    HW216679   4.517   8.024   8.095  0.1151  0.3902 -0.9968
 5501SOL     OW16680   1.894   6.619   2.505 -0.4267  0.5892 -0.1157
 5501SOL    HW116681   1.918   6.710   2.470  0.0331 -0.2485 -2.0588
 5501SOL    HW216682   1.977   6.568   2.525 -0.6680  0.0103 -0.5783
 5502SOL     OW16683   6.961   3.941   7.081  0.5145  0.4738  0.2080
 5502SOL    HW116684   6.911   3.867   7.126  1.2010 -1.3746 -1.8666
 5502SOL    HW216685   6.959   4.023   7.139 -1.7204 -0.6172  1.8332
 5503SOL     OW16686   3.943   0.090   2.201 -0.0559 -0.2031  0.3037
 5503SOL    HW116687   4.027   0.087   2.256 -0.1826 -1.8748  0.4825
 5503SOL    HW216688   3.871   0.040   2.249 -0.8744  0.3787 -0.2958
 5504SOL     OW16689   7.474   6.541   6.834  0.4306 -0.2216 -0.5703
 5504SOL    HW116690   7.497   6.614   6.899  0.6975  0.8402 -1.8189
 5504SOL    HW216691   7.387   6.500   6.859  1.1171 -0.6967  1.1821
 5505SOL     OW16692   1.601   6.254   3.606 -0.3259 -0.3178  0.6640
 5505SOL    HW116693   1.566   6.165   3.635  0.3983 -0.1648  2.0814
 5505SOL    HW216694   1.561   6.326   3.662 -1.6717  0.4004 -1.1114
 5506SOL     OW16695   7.559   5.934   4.080 -0.1637  0.4185 -0.4158
 5506SOL    HW116696   7.522   5.876   4.007 -1.9596  2.7501 -1.4880
 5506SOL    HW216697   7.579   6.025   4.044  0.4102  1.1888  1.6784
 5507SOL     OW16698   2.242   6.688   2.314 -0.1185  0.0920  0.4179
 5507SOL    HW116699   2.170   6.754   2.340 -0.7452  0.2247 -1.4771
 5507SOL    HW216700   2.201   6.613   2.263  0.7184 -1.3951  1.8550
 5508SOL     OW16701   1.103   3.246   2.032  0.9078 -0.1713 -0.6672
 5508SOL    HW116702   1.202   3.248   2.024  0.9284 -0.6456 -0.5535
 5508SOL    HW216703   1.075   3.174   2.096  0.5924  1.5559  1.2280
 5509SOL     OW16704   5.783   7.000   5.359  0.4505  0.3603  0.2814
 5509SOL    HW116705   5.818   7.071   5.298 -0.6794 -0.1327 -0.9991
 5509SOL    HW216706   5.723   6.939   5.307 -0.1654 -0.3699  1.8026
 5510SOL     OW16707   6.328   4.008   2.941 -0.2453 -0.2620  0.7059
 5510SOL    HW116708   6.400   4.027   2.874  0.5230  0.2851  1.6508
 5510SOL    HW216709   6.302   4.093   2.987 -1.1336 -0.5445  0.7384
 5511SOL     OW16710   5.462   8.161   4.235 -0.8516 -0.3211  0.0072
 5511SOL    HW116711   5.534   8.157   4.304  2.2993  1.3615 -2.9183
 5511SOL    HW216712   5.437   8.068   4.208  1.0360 -0.9495  0.3225
 5512SOL     OW16713   7.563   4.778   7.531 -0.3275  0.5474 -0.0834
 5512SOL    HW116714   7.567   4.759   7.629 -2.9397 -0.0326 -0.0054
 5512SOL    HW216715   7.650   4.817   7.501 -0.1704  2.9217  2.9147
 5513SOL     OW16716   2.885   0.867   8.651 -0.2962  0.2329 -0.1716
 5513SOL    HW116717   2.802   0.814   8.634 -1.5526  1.7925  0.7818
 5513SOL    HW216718   2.911   0.858   8.747  0.0115  0.6177 -0.2169
 5514SOL     OW16719   5.304   8.551   4.613 -0.4064  0.2534 -0.4853
 5514SOL    HW116720   5.271   8.607   4.537  3.8031  2.8973 -0.6649
 5514SOL    HW216721   5.372   8.486   4.579 -2.2972 -2.3724  0.3932
 5515SOL     OW16722   8.252   7.921   5.776 -0.1468  0.0703  0.4982
 5515SOL    HW116723   8.172   7.918   5.718 -0.4697 -0.0669  0.9459
 5515SOL    HW216724   8.334   7.931   5.719 -0.5294  0.9356  0.0787
 5516SOL     OW16725   0.629   4.921   0.411 -0.4050 -0.3754 -0.4309
 5516SOL    HW116726   0.538   4.880   0.421 -1.8140  1.6937 -3.3936
 5516SOL    HW216727   0.667   4.895   0.322  1.3078 -0.0516  0.1741
 5517SOL     OW16728   6.533   0.140   6.553  0.3725 -0.5664 -0.4203
 5517SOL    HW116729   6.486   0.093   6.627  0.9850 -0.9296 -0.2584
 5517SOL    HW216730   6.585   0.217   6.590 -0.9683  0.5538 -0.7288
 5518SOL     OW16731   3.916   2.872   0.150 -0.0205  0.0918 -0.2071
 5518SOL    HW116732   3.960   2.934   0.216  1.9167 -0.4264 -0.9673
 5518SOL    HW216733   3.817   2.873   0.166 -0.0751  3.2523 -0.0852
 5519SOL     OW16734   0.578   5.266   3.864 -0.7546  0.4682 -0.1010
 5519SOL    HW116735   0.545   5.306   3.778  1.3098  1.2417 -0.5898
 5519SOL    HW216736   0.641   5.191   3.843 -1.7150 -0.6383  0.7997
 5520SOL     OW16737   7.585   4.363   2.471 -0.1562  0.4200 -0.7130
 5520SOL    HW116738   7.657   4.432   2.465  0.8662 -0.6576 -1.2025
 5520SOL    HW216739   7.563   4.345   2.567  0.0502  0.9230 -0.5699
 5521SOL     OW16740   6.931   5.178   6.631  0.2588 -0.5456  1.0444
 5521SOL    HW116741   6.924   5.264   6.582  1.7822 -1.2444 -0.5146
 5521SOL    HW216742   6.840   5.150   6.663 -0.2873  1.5049  1.4505
 5522SOL     OW16743   4.221   0.052   0.376  0.3935 -0.0642 -0.4857
 5522SOL    HW116744   4.288   0.111   0.331  0.9762 -0.8865 -0.7074
 5522SOL    HW216745   4.245   0.042   0.473  0.9004 -0.7811 -0.6792
 5523SOL     OW16746   8.401   0.872   1.000  0.3947  0.5237  0.0681
 5523SOL    HW116747   8.400   0.962   0.957  1.1525  1.1204  1.2469
 5523SOL    HW216748   8.351   0.876   1.087 -1.5279 -0.7739 -0.9114
 5524SOL     OW16749   8.636   3.021   6.080  0.6258  0.2064  0.0911
 5524SOL    HW116750   8.735   3.023   6.064  0.6920  1.6101  0.5075
 5524SOL    HW216751   8.588   3.025   5.993  0.9321  0.0531 -0.0884
 5525SOL     OW16752   4.090   2.294   2.235  0.6089  0.2762  0.2074
 5525SOL    HW116753   4.089   2.340   2.324  0.1849 -0.6202  0.6801
 5525SOL    HW216754   4.033   2.345   2.170  1.3418  1.2212  0.2860
 5526SOL     OW16755   2.130   2.215   2.179  0.1633 -0.0727 -0.3455
 5526SOL    HW116756   2.117   2.304   2.135  0.7135  0.4698  0.5743
 5526SOL    HW216757   2.094   2.218   2.272 -1.3191 -1.3305 -0.8404
 5527SOL     OW16758   6.272   3.801   2.400 -0.0713 -0.0145 -0.3583
 5527SOL    HW116759   6.327   3.792   2.318  1.6465  0.0361  0.7453
 5527SOL    HW216760   6.209   3.879   2.389  0.3495  0.1895 -1.4782
 5528SOL     OW16761   0.518   5.816   5.290  0.5186 -0.1456 -0.7633
 5528SOL    HW116762   0.537   5.902   5.338 -0.6574 -0.8297  1.0096
 5528SOL    HW216763   0.456   5.835   5.213 -0.4006  0.5009  0.1086
 5529SOL     OW16764   3.816   6.688   5.733  0.1219  0.4725 -0.2165
 5529SOL    HW116765   3.756   6.768   5.739 -0.6151 -0.0500 -0.5230
 5529SOL    HW216766   3.911   6.719   5.724  0.1664  1.3234  2.2928
 5530SOL     OW16767   5.497   0.038   7.552  0.0325 -0.0278  0.5082
 5530SOL    HW116768   5.430   0.005   7.619  1.8990 -0.9197  2.0220
 5530SOL    HW216769   5.526   0.130   7.577 -2.0045  1.2108 -1.2944
 5531SOL     OW16770   0.969   7.111   1.611  0.4878 -0.5116  0.2518
 5531SOL    HW116771   0.929   7.026   1.646  0.6303 -0.4809  0.4907
 5531SOL    HW216772   1.038   7.090   1.542 -0.8727 -0.5302 -1.1579
 5532SOL     OW16773   5.657   7.807   7.718  0.2160 -0.1852 -1.0357
 5532SOL    HW116774   5.568   7.851   7.710  0.9288  1.8049  0.8850
 5532SOL    HW216775   5.675   7.752   7.636 -1.7283  1.2972 -2.5596
 5533SOL     OW16776   2.060   6.840   3.337 -0.4470 -0.2141 -0.0874
 5533SOL    HW116777   2.006   6.922   3.356 -1.2777 -0.9591  0.8162
 5533SOL    HW216778   2.026   6.796   3.254  0.7374  0.9557 -1.2363
 5534SOL     OW16779   1.220   1.498   2.934  0.7864 -0.0989 -0.2703
 5534SOL    HW116780   1.195   1.585   2.977  2.0664  0.1914 -0.0723
 5534SOL    HW216781   1.160   1.481   2.856 -0.2545  0.3673  0.4009
 5535SOL     OW16782   5.602   8.535   8.790 -0.0708  0.7435  0.7343
 5535SOL    HW116783   5.648   8.541   8.878  0.3923  1.1439  0.4726
 5535SOL    HW216784   5.661   8.575   8.719 -0.4279  0.4111  0.2422
 5536SOL     OW16785   5.922   7.352   5.199  0.1055  0.6135  0.4098
 5536SOL    HW116786   5.840   7.325   5.149  0.5815 -0.4613  0.1739
 5536SOL    HW216787   5.925   7.451   5.209 -2.3911  0.5835  2.4096
 5537SOL     OW16788   0.215   1.541   0.140 -0.2337 -0.6211 -0.1738
 5537SOL    HW116789   0.214   1.554   0.040 -0.3398  0.7406 -0.0013
 5537SOL    HW216790   0.286   1.474   0.163  0.1289 -0.5843 -1.1154
 5538SOL     OW16791   8.182   7.749   0.513 -0.4179  0.2267  0.2338
 5538SOL    HW116792   8.098   7.790   0.478  0.5943  2.2916  0.0104
 5538SOL    HW216793   8.174   7.650   0.513 -1.5892  0.2039 -3.0573
 5539SOL     OW16794   8.782   2.104   6.544  0.0373  0.4048 -0.5508
 5539SOL    HW116795   8.815   2.042   6.615 -0.8215 -0.6262 -1.0299
 5539SOL    HW216796   8.828   2.192   6.553  0.8258 -0.0962  0.5271
 5540SOL     OW16797   2.255   6.713   3.993  0.5506  0.1303  0.0588
 5540SOL    HW116798   2.341   6.674   3.961  0.5892  0.1215  0.1727
 5540SOL    HW216799   2.261   6.813   3.987  0.4403  0.1184 -0.2621
 5541SOL     OW16800   8.418   6.210   7.615  0.4550  0.1735 -0.1446
 5541SOL    HW116801   8.401   6.156   7.532  3.1394 -1.1328  0.0486
 5541SOL    HW216802   8.391   6.305   7.599  1.6819  0.1504 -2.8741
 5542SOL     OW16803   5.680   8.130   4.395  0.3868 -0.0386  0.3926
 5542SOL    HW116804   5.668   8.123   4.494  0.0950 -2.7240  0.2398
 5542SOL    HW216805   5.737   8.054   4.364  0.2172  0.5970 -1.5506
 5543SOL     OW16806   7.362   0.851   6.959 -0.2051 -0.4187  0.0814
 5543SOL    HW116807   7.306   0.863   7.041 -1.6498  2.3940 -1.1768
 5543SOL    HW216808   7.309   0.804   6.888 -0.3818  0.7058 -0.5434
 5544SOL     OW16809   5.538   6.535   4.904  0.3833  0.2656  0.3975
 5544SOL    HW116810   5.550   6.633   4.922 -0.5988 -0.0057  3.0283
 5544SOL    HW216811   5.622   6.486   4.930  0.4972  0.3025  0.0997
 5545SOL     OW16812   7.748   1.985   2.629  0.1346 -0.2077  0.0627
 5545SOL    HW116813   7.693   1.950   2.553 -1.1609  1.2581  0.2596
 5545SOL    HW216814   7.827   2.035   2.593 -0.3090  0.2231 -0.3278
 5546SOL     OW16815   4.898   5.505   0.667  0.0059  0.5649  0.4711
 5546SOL    HW116816   4.835   5.485   0.592  0.8792  0.1315 -0.1637
 5546SOL    HW216817   4.863   5.464   0.752  0.3704 -1.3546 -0.2625
 5547SOL     OW16818   4.066   1.878   7.816  0.3233 -0.0448 -0.5377
 5547SOL    HW116819   4.146   1.922   7.857  1.1474 -0.7209 -1.3892
 5547SOL    HW216820   3.992   1.876   7.883  1.1014  0.3556  0.3586
 5548SOL     OW16821   7.437   4.945   3.680 -0.7848  0.2376  0.2641
 5548SOL    HW116822   7.396   4.923   3.768 -1.4847  3.4197  0.8518
 5548SOL    HW216823   7.537   4.936   3.687 -0.9783 -3.1535  0.1629
 5549SOL     OW16824   7.883   2.393   7.756  0.0907  0.5797 -0.4976
 5549SOL    HW116825   7.938   2.320   7.716  0.2478  0.9069 -0.8830
 5549SOL    HW216826   7.939   2.444   7.821 -0.2504 -0.1428  0.3956
 5550SOL     OW16827   2.427   5.054   6.774  0.1851 -0.3646  0.3492
 5550SOL    HW116828   2.517   5.028   6.810 -0.6143 -0.2269  2.6697
 5550SOL    HW216829   2.396   5.137   6.820  0.0966  1.3254 -2.5836
 5551SOL     OW16830   4.223   8.856   2.808  0.5252  0.1090  0.4135
 5551SOL    HW116831   4.194   8.950   2.794  1.4176  0.1956 -1.0800
 5551SOL    HW216832   4.244   8.841   2.905 -0.0111  1.3155  0.7302
 5552SOL     OW16833   0.793   1.362   5.829 -0.2637 -0.6112  0.6179
 5552SOL    HW116834   0.771   1.296   5.758 -0.2827  0.7379 -0.6758
 5552SOL    HW216835   0.708   1.403   5.864 -0.1619  0.7949 -0.6615
 5553SOL     OW16836   0.249   0.855   6.298  0.1683 -0.7904 -0.4107
 5553SOL    HW116837   0.322   0.862   6.230  0.1057 -1.5182 -0.5613
 5553SOL    HW216838   0.219   0.760   6.305 -0.3464 -0.5971  0.0924
 5554SOL     OW16839   2.266   1.442   2.433 -0.1530 -0.4703  0.0597
 5554SOL    HW116840   2.277   1.530   2.480  1.7650 -0.1739 -0.8245
 5554SOL    HW216841   2.307   1.370   2.490 -0.3150 -0.5435  0.0825
 5555SOL     OW16842   7.537   6.912   4.217  0.2822 -0.1122 -0.2858
 5555SOL    HW116843   7.561   6.831   4.164  0.7265  0.3844 -0.8670
 5555SOL    HW216844   7.476   6.887   4.292  1.5591 -1.2146  0.4152
 5556SOL     OW16845   0.302   5.267   7.367 -0.0170  0.1401  0.2172
 5556SOL    HW116846   0.226   5.244   7.307 -0.2520  0.9235  0.2007
 5556SOL    HW216847   0.333   5.360   7.347  1.5403 -0.4601 -0.4086
 5557SOL     OW16848   0.033   2.656   2.558 -0.0588  0.7849  0.2371
 5557SOL    HW116849   0.100   2.582   2.567 -2.1177 -1.1090  1.1950
 5557SOL    HW216850  -0.035   2.631   2.488 -0.2844  2.2221 -0.0843
 5558SOL     OW16851   0.579   3.497   0.282 -0.1511 -0.1241 -0.2804
 5558SOL    HW116852   0.654   3.435   0.306  0.2788  1.2880  2.3953
 5558SOL    HW216853   0.590   3.527   0.187  1.7813 -1.1347 -0.4355
 5559SOL     OW16854   2.532   3.137   3.823 -0.7619  0.7659 -0.0698
 5559SOL    HW116855   2.441   3.097   3.832 -1.3451  2.0564  0.0808
 5559SOL    HW216856   2.558   3.181   3.909  0.8248 -1.1704  0.5030
 5560SOL     OW16857   5.023   2.786   3.653  0.0310  0.2720  0.1769
 5560SOL    HW116858   5.027   2.750   3.559  0.6726 -4.1060  1.6680
 5560SOL    HW216859   4.928   2.798   3.680 -0.2008 -0.1433 -0.4403
 5561SOL     OW16860   0.317   2.477   8.593 -0.0623  0.5341  1.1344
 5561SOL    HW116861   0.224   2.510   8.581  0.8870  2.4304 -1.9405
 5561SOL    HW216862   0.325   2.385   8.554 -0.6314  0.3423  1.4603
 5562SOL     OW16863   4.895   3.718   7.691 -0.2979  0.1209  0.3178
 5562SOL    HW116864   4.952   3.682   7.764 -1.4880 -0.7956  0.8381
 5562SOL    HW216865   4.840   3.644   7.651  0.0070  0.6793 -1.2253
 5563SOL     OW16866   6.091   3.813   6.982 -0.3770 -0.0286  0.0947
 5563SOL    HW116867   6.153   3.874   6.934  0.3656 -2.1625 -1.8459
 5563SOL    HW216868   6.114   3.810   7.079  2.3978 -0.5138 -0.5133
 5564SOL     OW16869   8.327   7.776   7.976 -0.3999  0.2296  0.5339
 5564SOL    HW116870   8.404   7.838   7.961  0.0733  0.1841  2.5455
 5564SOL    HW216871   8.244   7.817   7.938  0.6127  0.1111 -2.0131
 5565SOL     OW16872   3.758   6.373   4.057 -0.3626  0.1542  0.3361
 5565SOL    HW116873   3.768   6.417   3.968 -0.7751  0.7104  0.5586
 5565SOL    HW216874   3.847   6.367   4.101 -0.2627  0.5066  0.1824
 5566SOL     OW16875   7.352   3.847   3.391 -0.5275  0.2105 -0.7528
 5566SOL    HW116876   7.283   3.863   3.461  0.1758  0.6229 -0.1337
 5566SOL    HW216877   7.344   3.754   3.356 -0.2179 -0.3626  0.6433
 5567SOL     OW16878   3.103   2.478   5.903 -0.5504  0.2367 -0.0485
 5567SOL    HW116879   3.026   2.414   5.897 -0.9534  0.4535  2.0232
 5567SOL    HW216880   3.127   2.492   5.999  2.7110 -0.5331 -0.6370
 5568SOL     OW16881   3.799   6.753   0.163 -0.4181  0.1675 -0.0654
 5568SOL    HW116882   3.879   6.723   0.111  0.1372 -0.1389  0.9478
 5568SOL    HW216883   3.719   6.699   0.136  0.1161 -0.7741  0.2104
 5569SOL     OW16884   2.563   3.553   4.101 -0.0608  0.0212  0.1802
 5569SOL    HW116885   2.655   3.541   4.139 -0.0563 -0.3237  0.0719
 5569SOL    HW216886   2.553   3.646   4.066  0.0818  0.2079  0.6249
 5570SOL     OW16887   0.157   1.848   7.637 -0.3195  0.0794  0.3366
 5570SOL    HW116888   0.072   1.802   7.663  0.1058 -0.3843  0.9486
 5570SOL    HW216889   0.225   1.780   7.608  0.3613  0.2723  1.3839
 5571SOL     OW16890   1.083   7.591   0.127  0.0525  0.0398 -0.1619
 5571SOL    HW116891   1.111   7.648   0.204  0.8194 -1.4494  0.6966
 5571SOL    HW216892   1.143   7.511   0.121 -2.6395 -2.1460  0.3820
 5572SOL     OW16893   5.994   3.892   8.301 -0.9230  0.0588 -0.3412
 5572SOL    HW116894   5.939   3.948   8.363  0.0005  0.5154  0.0869
 5572SOL    HW216895   5.933   3.839   8.242 -1.8599 -0.7798  1.2873
 5573SOL     OW16896   5.455   7.728   6.400  0.4270  0.2980  0.1722
 5573SOL    HW116897   5.520   7.743   6.326 -0.1278 -0.1462 -0.4037
 5573SOL    HW216898   5.392   7.655   6.376 -0.3458  0.7769  0.6927
 5574SOL     OW16899   1.037   8.314   4.248 -0.1250  0.0868 -0.1370
 5574SOL    HW116900   1.040   8.286   4.344  0.6628 -0.9327 -0.4270
 5574SOL    HW216901   1.094   8.395   4.234 -1.5799  1.2621  0.5357
 5575SOL     OW16902   1.236   1.492   8.423 -0.1008 -0.2367  0.0467
 5575SOL    HW116903   1.306   1.508   8.353  0.6886 -1.9812  0.3834
 5575SOL    HW216904   1.265   1.531   8.510 -0.0441 -0.0244 -0.0680
 5576SOL     OW16905   7.224   4.368   6.039  0.0722  0.5595 -0.0896
 5576SOL    HW116906   7.305   4.310   6.045 -0.8928 -1.0419 -1.7149
 5576SOL    HW216907   7.168   4.357   6.121  0.0436 -0.6012 -0.2577
 5577SOL     OW16908   7.024   4.790   7.159  0.2393  0.5086 -0.2121
 5577SOL    HW116909   7.107   4.737   7.142 -1.0502 -1.0536 -2.0444
 5577SOL    HW216910   7.024   4.872   7.100  0.6401  0.7066  0.0610
 5578SOL     OW16911   5.513   7.675   3.526 -0.2220  0.0689  0.6012
 5578SOL    HW116912   5.517   7.761   3.577  0.2897  1.0288 -0.9940
 5578SOL    HW216913   5.579   7.677   3.451 -1.3638 -1.0513 -0.4928
 5579SOL     OW16914   7.599   2.452   0.861  0.7402 -0.1561 -0.2936
 5579SOL    HW116915   7.508   2.410   0.855 -0.7707  2.8522 -0.0716
 5579SOL    HW216916   7.591   2.542   0.904  4.1809 -0.6812  1.8242
 5580SOL     OW16917   3.675   7.544   4.538 -0.4313 -0.1514 -0.5666
 5580SOL    HW116918   3.757   7.562   4.484 -1.3125  0.3705 -1.7813
 5580SOL    HW216919   3.606   7.613   4.519 -1.4636 -1.0475 -0.2158
 5581SOL     OW16920   0.432   7.297   6.074 -0.2840  0.4277  0.3821
 5581SOL    HW116921   0.360   7.366   6.060 -0.9209 -0.4205 -0.7165
 5581SOL    HW216922   0.405   7.212   6.030  0.5467 -0.5080  1.6285
 5582SOL     OW16923   7.293   6.323   3.180 -0.2850 -0.1341  0.0859
 5582SOL    HW116924   7.355   6.333   3.258 -0.4022 -0.9726  0.2949
 5582SOL    HW216925   7.204   6.362   3.202  0.1323  1.0240 -0.1935
 5583SOL     OW16926   8.749   3.304   6.856 -0.2716 -0.1717 -0.3264
 5583SOL    HW116927   8.676   3.368   6.877  1.4649  1.4491  1.1103
 5583SOL    HW216928   8.781   3.319   6.762 -0.1805  0.7782 -0.1463
 5584SOL     OW16929   2.703   7.011   5.230 -0.0194  0.4058 -0.3761
 5584SOL    HW116930   2.735   6.959   5.309 -0.1984  1.0615  0.1350
 5584SOL    HW216931   2.663   7.097   5.260 -1.8946 -0.1923 -1.0238
 5585SOL     OW16932   0.358   7.553   1.695  0.2568 -0.0159 -0.1660
 5585SOL    HW116933   0.284   7.557   1.762  0.7446 -3.8507  0.8421
 5585SOL    HW216934   0.341   7.477   1.632  2.2472  0.4566 -1.3556
 5586SOL     OW16935   2.066   5.481   4.706  0.3946  0.0923  0.0776
 5586SOL    HW116936   2.121   5.406   4.744 -0.2610 -0.1639  0.5465
 5586SOL    HW216937   1.975   5.478   4.746  0.1675  0.7663 -0.3801
 5587SOL     OW16938   6.128   2.536   6.997  0.3404  0.1460 -0.1952
 5587SOL    HW116939   6.143   2.600   6.921 -0.8076  1.2396  0.4705
 5587SOL    HW216940   6.213   2.525   7.048  0.6434  0.8444 -0.5366
 5588SOL     OW16941   1.639   5.466   7.283  0.2761  0.3285 -0.4357
 5588SOL    HW116942   1.705   5.393   7.302  1.0715  0.8266 -1.1961
 5588SOL    HW216943   1.548   5.438   7.314  0.7846 -0.4934  0.3688
 5589SOL     OW16944   5.737   6.416   8.713  0.2611 -0.0553 -0.3318
 5589SOL    HW116945   5.797   6.344   8.678 -1.5551 -1.6037 -0.4326
 5589SOL    HW216946   5.748   6.498   8.658  0.9492 -0.8953 -1.5056
 5590SOL     OW16947   7.647   1.481   1.186 -0.0083 -0.4110  0.1366
 5590SOL    HW116948   7.686   1.507   1.275  0.8173 -0.4237 -0.2121
 5590SOL    HW216949   7.549   1.498   1.187  0.2082  0.9481  0.5723
 5591SOL     OW16950   2.999   1.646   7.172  0.1925  0.7598  0.2866
 5591SOL    HW116951   3.038   1.572   7.117  1.4609 -0.6865  2.9273
 5591SOL    HW216952   3.019   1.734   7.128  0.6873 -0.3118 -1.7550
 5592SOL     OW16953   7.982   2.959   4.101 -0.0655  0.0011 -0.0868
 5592SOL    HW116954   7.944   2.867   4.108 -0.1610  0.1378  1.9524
 5592SOL    HW216955   7.907   3.025   4.093 -0.0337 -0.0502 -0.7969
 5593SOL     OW16956   4.073   5.730   2.684  0.1299  0.3969 -0.4372
 5593SOL    HW116957   4.094   5.828   2.682  1.8571  0.0780  0.2206
 5593SOL    HW216958   4.115   5.689   2.765 -1.9294 -0.6222  0.1939
 5594SOL     OW16959   4.754   0.871   1.125  0.3013 -0.4329  0.3711
 5594SOL    HW116960   4.809   0.940   1.172 -1.8959  0.7292  1.4056
 5594SOL    HW216961   4.659   0.880   1.154 -0.6612 -1.6092 -2.1561
 5595SOL     OW16962   4.172   4.213   6.537 -0.4321 -0.3336  0.4764
 5595SOL    HW116963   4.171   4.132   6.594  0.0828 -0.7790 -0.1265
 5595SOL    HW216964   4.169   4.186   6.440 -1.2470  0.3985  0.2827
 5596SOL     OW16965   4.112   7.914   1.773  0.1988  0.3666 -0.1647
 5596SOL    HW116966   4.158   7.829   1.745  0.9690  0.5609  0.5000
 5596SOL    HW216967   4.015   7.908   1.748 -0.4735 -1.9433  2.4300
 5597SOL     OW16968   4.594   7.428   5.984  0.3362 -0.9142  0.5154
 5597SOL    HW116969   4.667   7.466   6.041  0.4916 -1.0241  0.3884
 5597SOL    HW216970   4.513   7.487   5.991  0.7389 -0.2765 -0.0817
 5598SOL     OW16971   7.376   6.448   0.592 -0.1491  0.1274 -0.6518
 5598SOL    HW116972   7.281   6.455   0.560 -0.3405 -1.0439 -0.3726
 5598SOL    HW216973   7.391   6.514   0.666 -1.0555 -0.3864  0.0111
 5599SOL     OW16974   3.377   8.641   8.774  0.0792  0.3276 -0.3151
 5599SOL    HW116975   3.435   8.698   8.832  0.4007 -1.0377  0.7556
 5599SOL    HW216976   3.429   8.563   8.741 -0.4226  0.4916 -1.5688
 5600SOL     OW16977   8.627   2.440   5.841  0.0500  0.2937 -0.2636
 5600SOL    HW116978   8.656   2.344   5.846 -0.5201  0.0581 -1.3180
 5600SOL    HW216979   8.708   2.498   5.830  0.4329 -0.0143  0.7369
 5601SOL     OW16980   6.118   8.539   5.643  1.0727  0.0372 -0.1484
 5601SOL    HW116981   6.101   8.453   5.691  0.3029 -0.0743 -0.5975
 5601SOL    HW216982   6.161   8.520   5.555 -4.5691 -0.6277 -3.2282
 5602SOL     OW16983   1.425   0.313   7.010  0.7905 -0.0114 -0.1494
 5602SOL    HW116984   1.456   0.340   7.101  0.2851 -0.5355  0.1852
 5602SOL    HW216985   1.446   0.216   6.995  0.3003 -0.0868 -0.3476
 5603SOL     OW16986   1.329   7.266   8.013 -0.1671 -0.4534 -0.2551
 5603SOL    HW116987   1.420   7.243   8.046 -0.1925 -0.8075 -0.4313
 5603SOL    HW216988   1.261   7.227   8.075 -0.2216 -1.4080 -0.9044
 5604SOL     OW16989   2.105   8.701   8.621  0.3835  0.3669 -0.0959
 5604SOL    HW116990   2.050   8.625   8.584 -2.9042  1.9450  1.1180
 5604SOL    HW216991   2.168   8.666   8.689 -1.4254 -1.3018  0.8438
 5605SOL     OW16992   5.157   6.543   6.464 -0.1715  0.1867 -0.7493
 5605SOL    HW116993   5.160   6.623   6.524 -0.3222 -1.4399  1.6099
 5605SOL    HW216994   5.068   6.539   6.418 -0.5625  0.8411 -0.0715
 5606SOL     OW16995   3.197   0.286   8.304 -0.2326 -0.8164  0.2472
 5606SOL    HW116996   3.286   0.327   8.285  0.2847 -1.5607  0.9670
 5606SOL    HW216997   3.130   0.317   8.237  0.7502 -0.8318 -0.7584
 5607SOL     OW16998   0.703   6.071   7.874  0.0573  0.5673 -0.1893
 5607SOL    HW116999   0.656   5.991   7.912  2.1247 -1.4782 -1.6024
 5607SOL    HW217000   0.739   6.127   7.949 -0.5021 -0.4292  0.8543
 5608SOL     OW17001   7.230   7.119   4.192  0.2028 -0.1337  0.4123
 5608SOL    HW117002   7.196   7.153   4.280 -0.6196 -0.7191  0.3302
 5608SOL    HW217003   7.323   7.153   4.177 -0.5597  2.0837  0.3248
 5609SOL     OW17004   1.438   4.297   2.565  0.3150  0.0489  0.4737
 5609SOL    HW117005   1.416   4.320   2.470  1.3220 -1.3224 -0.1297
 5609SOL    HW217006   1.359   4.314   2.623 -1.0897 -1.1917 -0.9802
 5610SOL     OW17007   3.849   0.936   4.902 -0.1124 -0.3947  0.0156
 5610SOL    HW117008   3.865   0.911   4.806 -1.2169  0.0568 -0.3063
 5610SOL    HW217009   3.794   1.020   4.906 -0.7261 -0.8256  1.0391
 5611SOL     OW17010   1.201   7.852   3.186  0.0820 -0.1474  0.4833
 5611SOL    HW117011   1.106   7.872   3.160 -0.1409 -1.8273 -0.1285
 5611SOL    HW217012   1.216   7.876   3.282 -1.0592 -0.1848  0.6806
 5612SOL     OW17013   8.834   0.221   8.250 -0.0762 -0.1771  0.5024
 5612SOL    HW117014   8.864   0.177   8.165  0.5710  0.9736  0.1150
 5612SOL    HW217015   8.735   0.236   8.245  0.1791  1.3977 -0.8173
 5613SOL     OW17016   3.103   3.462   7.236  0.1722 -0.3331  0.3414
 5613SOL    HW117017   3.007   3.435   7.232  0.0783 -0.1473  1.1415
 5613SOL    HW217018   3.158   3.385   7.268  0.2581 -0.3783  0.0809
 5614SOL     OW17019   0.746   7.667   4.685  0.3868  0.6565  0.2823
 5614SOL    HW117020   0.814   7.600   4.714 -0.2348  0.5891  1.6569
 5614SOL    HW217021   0.685   7.625   4.617  0.4981  0.0862  0.5308
 5615SOL     OW17022   4.857   0.903   0.606  0.1523 -0.1621  0.6131
 5615SOL    HW117023   4.903   0.891   0.695 -0.1555  1.8400  1.0823
 5615SOL    HW217024   4.906   0.972   0.553  1.2054 -2.3700 -1.4582
 5616SOL     OW17025   1.007   0.627   7.631 -0.2060  0.3485  0.6847
 5616SOL    HW117026   0.939   0.566   7.673 -1.3290  1.1897  0.1617
 5616SOL    HW217027   1.087   0.634   7.690  0.4398 -2.4619  0.2473
 5617SOL     OW17028   6.778   3.344   6.474  0.1435 -0.1131  0.7120
 5617SOL    HW117029   6.739   3.362   6.383 -0.3354 -2.2892  0.4207
 5617SOL    HW217030   6.714   3.376   6.544 -0.1838  0.2158  0.2773
 5618SOL     OW17031   8.556   8.376   6.530 -0.5801 -0.4053 -0.1453
 5618SOL    HW117032   8.597   8.418   6.450 -1.7992 -1.3252 -1.2954
 5618SOL    HW217033   8.610   8.398   6.611  0.0222  1.5341 -1.0170
 5619SOL     OW17034   6.010   4.216   0.455 -0.2093 -0.6293  0.2895
 5619SOL    HW117035   6.018   4.180   0.548 -0.6698  1.5518  1.2317
 5619SOL    HW217036   6.026   4.315   0.456 -0.9795 -0.4297 -1.8450
 5620SOL     OW17037   4.463   2.490   6.632 -0.4998 -0.3511  0.1443
 5620SOL    HW117038   4.367   2.515   6.646 -1.9685 -4.8885 -0.0341
 5620SOL    HW217039   4.490   2.512   6.538 -1.5289  0.5652  0.0435
 5621SOL     OW17040   7.305   4.386   5.385 -0.1586 -0.2490  0.7263
 5621SOL    HW117041   7.368   4.456   5.420 -0.4551  1.0152 -1.1375
 5621SOL    HW217042   7.357   4.306   5.356  0.7423  1.0642 -1.4661
 5622SOL     OW17043   1.457   5.862   7.442  0.0767  0.6405 -0.2727
 5622SOL    HW117044   1.444   5.866   7.541  3.0141  1.5420  0.1762
 5622SOL    HW217045   1.555   5.858   7.422 -0.4835 -0.7304 -3.1445
 5623SOL     OW17046   1.321   8.392   0.917 -0.1614 -0.0047 -0.3966
 5623SOL    HW117047   1.271   8.338   0.984  1.4851  0.1381  1.0109
 5623SOL    HW217048   1.279   8.482   0.909  1.4568  1.2537  3.0783
 5624SOL     OW17049   5.948   4.899   8.410 -0.1908  0.4467  0.2727
 5624SOL    HW117050   5.875   4.865   8.469 -0.7870 -0.3888 -0.8873
 5624SOL    HW217051   5.932   4.867   8.316  2.8782 -1.7379  0.3353
 5625SOL     OW17052   2.583   6.079   3.275  0.5569  0.7598 -0.3250
 5625SOL    HW117053   2.519   6.018   3.228 -0.2633  0.4374  1.1546
 5625SOL    HW217054   2.676   6.046   3.262  0.2228 -0.1455 -0.5232
 5626SOL     OW17055   1.803   5.111   0.105  0.1841  0.3669  0.7040
 5626SOL    HW117056   1.710   5.077   0.098  0.2779  0.0111  1.1014
 5626SOL    HW217057   1.809   5.176   0.181  0.4027 -0.1296  1.1200
 5627SOL     OW17058   4.426   0.279   2.780  0.0857  0.4951  0.8969
 5627SOL    HW117059   4.468   0.199   2.823 -0.0041 -0.9388 -1.5186
 5627SOL    HW217060   4.497   0.339   2.743  0.1108  0.9168  1.6025
 5628SOL     OW17061   6.018   2.169   7.877  0.3927  0.0880  0.1839
 5628SOL    HW117062   6.103   2.116   7.889 -0.3648 -1.2380 -0.1494
 5628SOL    HW217063   6.041   2.259   7.840  1.6223 -0.4037 -0.3249
 5629SOL     OW17064   3.453   1.302   1.326  0.1327  0.0628  0.3490
 5629SOL    HW117065   3.490   1.347   1.407 -1.2695  1.2330  0.3713
 5629SOL    HW217066   3.354   1.310   1.326  0.0582 -0.5415 -1.1427
 5630SOL     OW17067   7.096   6.480   3.517  0.1845 -0.3551  0.0735
 5630SOL    HW117068   7.169   6.469   3.583  0.6383 -3.2442 -0.7942
 5630SOL    HW217069   7.120   6.552   3.451  1.2241  0.2043  1.0458
 5631SOL     OW17070   2.971   0.005   3.795 -0.0845 -0.0213 -0.4980
 5631SOL    HW117071   3.023   0.011   3.880  1.6585 -0.7352 -1.4788
 5631SOL    HW217072   2.960   0.097   3.757 -2.1868  0.5209  1.1787
 5632SOL     OW17073   4.826   1.218   5.599  0.1001  0.0919  0.3942
 5632SOL    HW117074   4.924   1.198   5.592 -0.0441 -0.3896 -0.3764
 5632SOL    HW217075   4.813   1.303   5.649  0.9405  0.4597  0.0124
 5633SOL     OW17076   0.326   3.935   5.504  0.0346  0.1862 -0.1375
 5633SOL    HW117077   0.421   3.967   5.502  0.0950 -0.0356 -0.9328
 5633SOL    HW217078   0.320   3.852   5.560 -0.0022  1.1536  1.3572
 5634SOL     OW17079   6.190   3.810   3.515  0.8061 -0.2548  0.1526
 5634SOL    HW117080   6.208   3.779   3.421  0.9195 -0.1291  0.1323
 5634SOL    HW217081   6.268   3.863   3.548  1.4511 -1.6296  0.8965
 5635SOL     OW17082   4.220   6.335   3.541 -0.1976  0.2192  0.4878
 5635SOL    HW117083   4.210   6.236   3.534 -2.0669  0.2841  1.6240
 5635SOL    HW217084   4.315   6.360   3.521  0.2008 -1.7260 -0.3111
 5636SOL     OW17085   2.212   6.899   7.676 -0.5255  0.0539  0.6620
 5636SOL    HW117086   2.123   6.868   7.709  0.2812 -1.2570  1.6849
 5636SOL    HW217087   2.260   6.823   7.631  0.6690  0.3365  1.4197
 5637SOL     OW17088   7.699   2.055   1.088  0.1980 -0.0822  0.0208
 5637SOL    HW117089   7.719   2.129   1.152 -0.2752 -0.2514  0.3683
 5637SOL    HW217090   7.722   1.967   1.130 -4.0307 -0.5835  1.6846
 5638SOL     OW17091   5.826   6.319   3.085  0.8633  0.5249 -0.5135
 5638SOL    HW117092   5.777   6.233   3.102  0.7152  0.5811 -0.6579
 5638SOL    HW217093   5.873   6.314   2.998  2.4115 -0.1244  0.3267
 5639SOL     OW17094   3.240   0.678   3.179 -0.0049  0.0135 -0.8372
 5639SOL    HW117095   3.286   0.591   3.164 -0.8879 -0.1380 -3.2869
 5639SOL    HW217096   3.301   0.753   3.153  0.0184 -0.0036 -0.8311
 5640SOL     OW17097   4.148   1.817   0.443 -0.2947  0.4427  0.0970
 5640SOL    HW117098   4.082   1.742   0.447  0.2255 -0.0744 -0.6888
 5640SOL    HW217099   4.106   1.901   0.477 -0.3427 -0.5707  2.8003
 5641SOL     OW17100   6.056   0.280   7.642  0.0364 -0.0429 -0.0959
 5641SOL    HW117101   6.006   0.194   7.630 -1.9269  0.5447  2.6528
 5641SOL    HW217102   6.041   0.313   7.735  2.0945  2.4672 -0.5607
 5642SOL     OW17103   7.120   8.842   5.563  0.3465 -1.0328  0.3999
 5642SOL    HW117104   7.163   8.752   5.564  1.6996 -0.4285 -0.1167
 5642SOL    HW217105   7.124   8.879   5.470 -0.9271 -0.7617  0.4342
 5643SOL     OW17106   6.274   2.869   2.292  0.1258 -0.1201  0.4105
 5643SOL    HW117107   6.264   2.932   2.215 -0.9846 -1.1976 -0.3734
 5643SOL    HW217108   6.189   2.867   2.345  0.1656 -0.9086  0.4586
 5644SOL     OW17109   3.703   4.056   1.691 -0.0441  0.0836  0.2587
 5644SOL    HW117110   3.639   4.133   1.686 -0.0095  0.0913 -0.1266
 5644SOL    HW217111   3.685   4.002   1.773 -2.8125 -1.9052 -1.4800
 5645SOL     OW17112   4.919   7.813   1.756  0.3814  0.0688 -0.0928
 5645SOL    HW117113   4.904   7.910   1.736 -1.1280 -0.2995 -0.8596
 5645SOL    HW217114   5.017   7.794   1.750  0.5880  1.2803 -1.2327
 5646SOL     OW17115   2.175   7.887   7.865  0.1806 -0.2086  0.1400
 5646SOL    HW117116   2.169   7.813   7.798  0.2685  0.0922 -0.2097
 5646SOL    HW217117   2.247   7.951   7.838  1.5857 -1.1141  1.5911
 5647SOL     OW17118   2.266   0.874   0.436  0.2346 -0.4015  0.0871
 5647SOL    HW117119   2.303   0.783   0.417 -1.3163 -0.6066 -2.4389
 5647SOL    HW217120   2.200   0.869   0.510  0.7210 -1.1677  0.4826
 5648SOL     OW17121   5.600   2.991   3.030 -0.3568 -0.1945 -0.1809
 5648SOL    HW117122   5.562   3.083   3.032  0.3836  0.1332  2.3738
 5648SOL    HW217123   5.595   2.951   3.122  1.4295 -1.8082 -0.7266
 5649SOL     OW17124   8.835   2.305   8.753 -0.1970 -0.2440  0.0917
 5649SOL    HW117125   8.752   2.355   8.728  1.2953  1.4647 -1.7854
 5649SOL    HW217126   8.880   2.352   8.829  0.6190  0.6740 -0.9315
 5650SOL     OW17127   2.130   8.043   0.389  0.4133 -0.0456  0.1970
 5650SOL    HW117128   2.094   8.015   0.478 -0.0956 -0.7526 -0.2243
 5650SOL    HW217129   2.195   7.975   0.355 -0.2912 -0.3862 -0.5051
 5651SOL     OW17130   5.764   7.829   2.009  0.1683  0.0642 -0.2592
 5651SOL    HW117131   5.824   7.852   1.932 -1.2739 -0.1424 -1.5022
 5651SOL    HW217132   5.761   7.905   2.073  0.0103  0.9935 -1.3395
 5652SOL     OW17133   8.124   5.944   7.899  0.3526  0.3767 -0.1329
 5652SOL    HW117134   8.219   5.967   7.880  0.7239 -0.0243  1.1274
 5652SOL    HW217135   8.119   5.893   7.985 -0.8766 -0.6801 -0.7975
 5653SOL     OW17136   3.738   6.099   1.355  0.5851 -0.3744 -0.1510
 5653SOL    HW117137   3.785   6.117   1.268  1.5024 -0.0736  0.3889
 5653SOL    HW217138   3.639   6.109   1.342  0.8377  3.2043 -0.4132
 5654SOL     OW17139   2.505   0.624   5.701 -0.0778 -0.6114  0.3456
 5654SOL    HW117140   2.427   0.585   5.750 -0.5384 -1.7146 -1.1746
 5654SOL    HW217141   2.472   0.684   5.628  0.5137 -0.4955  0.1696
 5655SOL     OW17142   7.733   4.180   6.082  0.0647 -0.0496 -0.0063
 5655SOL    HW117143   7.772   4.229   6.005 -0.1488 -0.9148 -0.6821
 5655SOL    HW217144   7.772   4.088   6.086  1.5510  0.5844  2.0894
 5656SOL     OW17145   2.931   2.190   3.973  0.8020 -0.5970  0.4693
 5656SOL    HW117146   2.850   2.181   4.031  0.3430 -0.6501 -0.1655
 5656SOL    HW217147   2.962   2.099   3.946  2.0034 -0.6582  1.9504
 5657SOL     OW17148   7.163   6.989   2.293  0.5114 -0.4383  0.2013
 5657SOL    HW117149   7.139   7.039   2.376  2.8294 -2.1466  2.0568
 5657SOL    HW217150   7.080   6.960   2.246 -0.9121  0.2235  2.1704
 5658SOL     OW17151   6.628   4.209   4.154  0.1587  0.3515  0.5245
 5658SOL    HW117152   6.560   4.282   4.160 -2.5348 -1.8781 -0.7143
 5658SOL    HW217153   6.653   4.178   4.245 -1.8104  0.1382  1.0301
 5659SOL     OW17154   4.342   7.556   1.012 -0.1257 -0.1679 -0.4613
 5659SOL    HW117155   4.278   7.625   0.981 -0.2778  0.3353  0.8826
 5659SOL    HW217156   4.295   7.491   1.071  0.5583  0.1967  0.5303
 5660SOL     OW17157   3.218   1.871   4.914 -0.0907 -0.0175  0.4757
 5660SOL    HW117158   3.235   1.779   4.878  0.1179  0.4031 -0.5143
 5660SOL    HW217159   3.119   1.888   4.916 -0.1793 -0.5310  1.3826
 5661SOL     OW17160   7.563   1.571   1.504 -0.5143 -0.5605 -0.4039
 5661SOL    HW117161   7.658   1.599   1.495 -0.5936 -0.4501 -0.9472
 5661SOL    HW217162   7.503   1.651   1.499 -0.7806 -0.8417 -2.6366
 5662SOL     OW17163   1.053   4.189   6.089 -0.2116  0.3276  0.5094
 5662SOL    HW117164   1.128   4.201   6.153 -0.1956 -1.0192  0.7620
 5662SOL    HW217165   1.064   4.103   6.039 -0.1659  1.3606 -1.3925
 5663SOL     OW17166   4.307   2.197   7.695  0.2172  0.0663  0.0255
 5663SOL    HW117167   4.302   2.130   7.769 -0.0428  1.5740  1.4633
 5663SOL    HW217168   4.354   2.279   7.729  0.7316  0.5339 -1.7326
 5664SOL     OW17169   4.950   6.554   0.096 -0.0329  0.0785 -0.0748
 5664SOL    HW117170   5.029   6.494   0.107 -0.5681 -1.1924 -2.3528
 5664SOL    HW217171   4.874   6.519   0.152  0.6359  0.6095  1.1905
 5665SOL     OW17172   5.630   5.286   4.373 -0.0885  0.2734 -0.1067
 5665SOL    HW117173   5.650   5.205   4.429 -0.1115  0.5789  0.3494
 5665SOL    HW217174   5.570   5.259   4.297 -0.7325  0.0013  0.4837
 5666SOL     OW17175   3.100   1.515   5.554 -0.7544  0.0373 -0.8352
 5666SOL    HW117176   3.025   1.519   5.619  0.6606  1.9392  0.8256
 5666SOL    HW217177   3.064   1.512   5.461 -2.8959  1.3919 -0.1104
 5667SOL     OW17178   2.615   0.690   4.663 -0.5920 -0.3075 -0.2150
 5667SOL    HW117179   2.598   0.618   4.731  2.6937  0.4783  1.6769
 5667SOL    HW217180   2.566   0.773   4.689 -1.4819 -0.7877 -0.3384
 5668SOL     OW17181   3.405   5.788   3.770  0.0817  0.3102 -0.1461
 5668SOL    HW117182   3.333   5.844   3.811  1.6438  1.1193  1.6263
 5668SOL    HW217183   3.409   5.806   3.672 -2.0644  0.2665 -0.2943
 5669SOL     OW17184   4.140   5.828   0.413  0.7599 -0.0109  0.4152
 5669SOL    HW117185   4.095   5.892   0.350 -0.0325 -0.0932  0.8937
 5669SOL    HW217186   4.198   5.766   0.360 -0.6135 -0.6857 -0.3517
 5670SOL     OW17187   5.617   7.694   7.998  0.3263 -0.5495 -0.2478
 5670SOL    HW117188   5.640   7.742   7.914  1.2074 -0.8399 -0.1801
 5670SOL    HW217189   5.557   7.617   7.977 -0.3076  0.0019 -0.4742
 5671SOL     OW17190   1.687   0.162   7.807  0.1014 -0.4495  0.2102
 5671SOL    HW117191   1.719   0.088   7.748  0.4654  0.2089 -0.4337
 5671SOL    HW217192   1.589   0.154   7.821  0.1648 -1.1391  0.2719
 5672SOL     OW17193   5.768   7.780   3.004 -0.5884  0.0493  0.0292
 5672SOL    HW117194   5.706   7.801   2.929  1.5234 -0.1624 -1.8879
 5672SOL    HW217195   5.789   7.864   3.055 -0.4168  0.6171 -0.9561
 5673SOL     OW17196   2.196   6.986   1.516 -0.2545  0.1083  0.0362
 5673SOL    HW117197   2.184   7.085   1.527 -0.2450  0.3221 -1.5617
 5673SOL    HW217198   2.292   6.962   1.532  0.2365  0.7365 -1.6487
 5674SOL     OW17199   0.246   8.246   6.528  0.6223  0.0051 -0.3995
 5674SOL    HW117200   0.149   8.226   6.547  0.6795 -0.0556 -0.1685
 5674SOL    HW217201   0.263   8.343   6.543  0.9662 -0.2694  1.1844
 5675SOL     OW17202   0.621   3.736   1.321  0.1967  0.0309  0.0588
 5675SOL    HW117203   0.622   3.722   1.420 -1.5061  1.6057  0.3613
 5675SOL    HW217204   0.561   3.668   1.279 -0.4490  0.4214  0.3340
 5676SOL     OW17205   0.160   0.918   3.883 -0.2972  0.5794 -0.7373
 5676SOL    HW117206   0.105   0.897   3.802 -1.3686  1.8173 -0.3804
 5676SOL    HW217207   0.133   1.008   3.918  0.8451  0.4957  0.4238
 5677SOL     OW17208   4.628   2.518   8.651 -0.2900  0.0859 -0.5856
 5677SOL    HW117209   4.625   2.428   8.607 -1.2377  0.4857 -1.3704
 5677SOL    HW217210   4.558   2.521   8.723 -1.0641  0.5727 -1.3405
 5678SOL     OW17211   4.389   8.082   4.761  0.3826 -0.0228  0.5498
 5678SOL    HW117212   4.444   8.159   4.727  1.9197 -1.3952 -0.1732
 5678SOL    HW217213   4.310   8.118   4.810  0.2529  2.0388 -1.0038
 5679SOL     OW17214   0.506   4.181   4.472 -0.2640  0.4550 -0.1081
 5679SOL    HW117215   0.468   4.268   4.442  0.6577  0.6969 -0.6141
 5679SOL    HW217216   0.597   4.168   4.431  1.8336  1.5574  3.7728
 5680SOL     OW17217   8.547   5.505   5.172  0.2357  0.1527 -0.1057
 5680SOL    HW117218   8.513   5.531   5.082 -0.1628  0.8187  0.2285
 5680SOL    HW217219   8.548   5.585   5.232  1.4983 -0.0617  0.1750
 5681SOL     OW17220   4.616   2.646   8.345  0.2881 -0.5468  0.6526
 5681SOL    HW117221   4.549   2.691   8.404 -1.3975 -1.5501 -0.4129
 5681SOL    HW217222   4.627   2.698   8.261 -0.2429 -1.1408  0.2146
 5682SOL     OW17223   3.088   2.876   4.863  0.4763  0.2880 -0.1125
 5682SOL    HW117224   3.002   2.829   4.880  0.8087 -0.1100  0.5462
 5682SOL    HW217225   3.144   2.875   4.947  0.7331  1.3617 -0.2467
 5683SOL     OW17226   7.119   7.904   1.188  0.4442 -0.0768 -0.2904
 5683SOL    HW117227   7.185   7.921   1.116 -0.2202 -0.4941 -1.0101
 5683SOL    HW217228   7.044   7.970   1.183 -0.2838 -0.9087 -0.8337
 5684SOL     OW17229   1.481   1.603   0.434  0.7533 -0.0212 -0.1688
 5684SOL    HW117230   1.522   1.534   0.374 -0.0476 -0.0865 -0.6623
 5684SOL    HW217231   1.463   1.686   0.381  0.4933  0.0937  0.0986
 5685SOL     OW17232   2.845   7.739   5.477  0.0818  0.7672  0.5090
 5685SOL    HW117233   2.892   7.653   5.456  0.5619  0.6478  1.9661
 5685SOL    HW217234   2.909   7.815   5.471 -0.8956  1.5139 -3.4949
 5686SOL     OW17235   5.551   4.248   5.162  0.0214 -0.5782  0.7045
 5686SOL    HW117236   5.577   4.295   5.078 -0.9602 -1.7734 -0.2856
 5686SOL    HW217237   5.456   4.271   5.186  1.1404  2.1400  3.1849
 5687SOL     OW17238   4.609   8.723   4.392 -0.2719  0.8389  0.0529
 5687SOL    HW117239   4.640   8.769   4.309 -0.2951  1.0985  0.1874
 5687SOL    HW217240   4.537   8.777   4.435  0.9111  1.5786  1.1539
 5688SOL     OW17241   8.473   3.488   2.641 -0.1733  0.0821 -0.4123
 5688SOL    HW117242   8.429   3.422   2.702  1.5602 -0.6663  0.0884
 5688SOL    HW217243   8.479   3.577   2.687 -1.0583  0.1689 -0.4533
 5689SOL     OW17244   3.427   5.219   1.517 -0.1751 -0.6015 -0.2164
 5689SOL    HW117245   3.454   5.225   1.613 -1.7737  0.8364  0.1889
 5689SOL    HW217246   3.384   5.131   1.499 -1.3700 -0.2545  0.8283
 5690SOL     OW17247   8.199   6.360   4.828 -0.5106 -0.2937  0.8298
 5690SOL    HW117248   8.114   6.367   4.879  0.0710 -2.8699  2.3183
 5690SOL    HW217249   8.230   6.265   4.826  3.0758  0.6940  1.5966
 5691SOL     OW17250   5.040   0.207   6.044 -0.2154 -0.2661 -0.2172
 5691SOL    HW117251   4.984   0.287   6.022  0.7630  0.0701 -1.5858
 5691SOL    HW217252   5.056   0.154   5.961  0.0441 -1.3101  0.4851
 5692SOL     OW17253   3.271   6.219   4.107  0.7577  0.0669 -0.2921
 5692SOL    HW117254   3.371   6.230   4.107  0.6523  1.2290  0.3901
 5692SOL    HW217255   3.239   6.213   4.012  1.6269 -2.2721 -0.5060
 5693SOL     OW17256   7.374   2.605   0.537  0.3826 -0.3247  0.9364
 5693SOL    HW117257   7.428   2.553   0.471 -1.1232  0.8365 -1.3358
 5693SOL    HW217258   7.334   2.684   0.492 -3.6868 -1.3878  2.2435
 5694SOL     OW17259   7.675   0.078   0.428  0.1223 -0.2298  0.2764
 5694SOL    HW117260   7.763   0.039   0.402 -0.1251 -1.4799  1.2025
 5694SOL    HW217261   7.601   0.027   0.384 -0.2198  3.0192 -3.5287
 5695SOL     OW17262   6.528   6.220   1.966  0.4357  0.0927 -0.9545
 5695SOL    HW117263   6.457   6.291   1.967 -0.3608 -0.6923 -0.1714
 5695SOL    HW217264   6.549   6.197   1.871 -2.8763 -2.0614 -1.3513
 5696SOL     OW17265   4.558   1.959   1.011  0.2605 -0.0607  0.0420
 5696SOL    HW117266   4.528   1.897   1.083 -1.4247 -0.3804 -0.8850
 5696SOL    HW217267   4.629   2.020   1.047 -0.9123  0.1723  2.1056
 5697SOL     OW17268   6.377   2.623   6.795 -0.1682 -0.0873  0.1599
 5697SOL    HW117269   6.307   2.635   6.725 -0.3057 -0.4667  0.2284
 5697SOL    HW217270   6.466   2.653   6.760 -0.0190 -1.3416 -0.5810
 5698SOL     OW17271   4.694   6.973   2.494  0.5361  0.4149  0.3270
 5698SOL    HW117272   4.610   6.922   2.474  1.6819 -0.8565 -1.5398
 5698SOL    HW217273   4.709   6.975   2.593 -0.0706 -2.0989  0.5379
 5699SOL     OW17274   5.804   5.709   5.032  0.1597 -0.4895 -0.1290
 5699SOL    HW117275   5.777   5.687   4.939  0.8859 -0.8882 -0.2537
 5699SOL    HW217276   5.904   5.711   5.038  0.1522 -2.0385  0.9967
 5700SOL     OW17277   4.977   2.736   1.836 -0.3644  0.1717 -0.0017
 5700SOL    HW117278   5.001   2.830   1.862 -0.5556 -0.0197  0.8982
 5700SOL    HW217279   5.030   2.672   1.891 -1.4042 -0.2487  0.5334
 5701SOL     OW17280   8.278   5.410   4.553 -0.3019 -0.4780 -0.3778
 5701SOL    HW117281   8.269   5.506   4.578  0.6633 -0.4249 -0.2040
 5701SOL    HW217282   8.317   5.403   4.461 -1.5046 -0.6986 -0.8872
 5702SOL     OW17283   3.838   5.918   8.251 -0.2905  0.5107 -0.7799
 5702SOL    HW117284   3.820   5.986   8.322 -1.2571  1.4097 -1.8589
 5702SOL    HW217285   3.887   5.961   8.175 -2.4600  0.4975 -2.2644
 5703SOL     OW17286   5.705   5.416   3.678  0.1529 -0.2345 -0.1591
 5703SOL    HW117287   5.649   5.497   3.691 -1.3575 -0.9634 -1.7606
 5703SOL    HW217288   5.678   5.346   3.744 -0.2119 -0.2741 -0.3507
 5704SOL     OW17289   2.029   7.672   3.945 -0.5992 -0.0477  0.4635
 5704SOL    HW117290   1.974   7.593   3.973 -1.2074 -0.4774 -1.7463
 5704SOL    HW217291   2.126   7.647   3.947 -0.6762 -0.3339  1.2153
 5705SOL     OW17292   0.377   2.128   5.803  0.4067  0.5587  0.2021
 5705SOL    HW117293   0.322   2.106   5.883 -0.2691 -0.8054 -0.5843
 5705SOL    HW217294   0.472   2.102   5.819 -0.1610 -2.1853 -0.2771
 5706SOL     OW17295   1.549   2.168   6.580  0.1137  0.2467  0.3615
 5706SOL    HW117296   1.469   2.228   6.570  0.2396  0.4022  0.2903
 5706SOL    HW217297   1.604   2.172   6.497 -0.4674 -0.8395 -0.0917
 5707SOL     OW17298   3.103   8.577   2.942  0.2192  0.4822  0.1254
 5707SOL    HW117299   3.169   8.526   2.997 -0.3881 -0.5707 -0.0945
 5707SOL    HW217300   3.124   8.675   2.948  3.5774  0.0777 -2.2003
 5708SOL     OW17301   3.155   4.971   5.689 -0.4484 -0.2202  0.1844
 5708SOL    HW117302   3.215   4.935   5.618 -0.9781 -0.1611 -0.3036
 5708SOL    HW217303   3.201   5.047   5.736  0.2853 -0.8863  0.5682
 5709SOL     OW17304   7.851   0.054   3.460 -0.5009  0.1902 -0.1320
 5709SOL    HW117305   7.902   0.097   3.535  1.1302 -2.4937  0.4624
 5709SOL    HW217306   7.756   0.043   3.486  0.1859 -1.3816  1.9638
 5710SOL     OW17307   0.445   0.866   5.072 -0.5338  0.3847 -0.0575
 5710SOL    HW117308   0.510   0.937   5.046 -0.6125  0.2138 -0.7359
 5710SOL    HW217309   0.369   0.865   5.006 -0.0769 -0.9379 -0.5863
 5711SOL     OW17310   0.589   1.712   0.137 -0.5376  0.1417  0.1482
 5711SOL    HW117311   0.497   1.737   0.107 -0.3128 -1.0267 -1.6666
 5711SOL    HW217312   0.647   1.696   0.057  0.4788 -1.8264  1.2055
 5712SOL     OW17313   3.383   7.607   6.259 -0.2228 -0.6061  0.8552
 5712SOL    HW117314   3.363   7.571   6.168 -0.2173 -0.5735  0.8414
 5712SOL    HW217315   3.337   7.695   6.271  2.5733  1.1549 -0.4245
 5713SOL     OW17316   0.699   4.251   6.316  0.2855 -0.1920 -0.1637
 5713SOL    HW117317   0.603   4.244   6.342 -0.0761  0.4625 -1.2524
 5713SOL    HW217318   0.733   4.343   6.335  1.0541 -0.7317  1.2775
 5714SOL     OW17319   8.792   5.251   6.844 -0.2327  0.2033  0.2213
 5714SOL    HW117320   8.729   5.301   6.905 -0.9921  0.2582 -0.5847
 5714SOL    HW217321   8.739   5.186   6.789  0.7869 -1.9376  1.6426
 5715SOL     OW17322   1.587   3.671   7.702 -0.2724 -0.4957 -0.2327
 5715SOL    HW117323   1.533   3.722   7.634  2.2968  1.1432 -1.1633
 5715SOL    HW217324   1.571   3.710   7.793 -0.0692  0.5130 -0.6130
 5716SOL     OW17325   6.502   7.681   4.352  0.3449 -0.4426 -0.2184
 5716SOL    HW117326   6.404   7.669   4.334  0.4512 -0.9333 -0.4802
 5716SOL    HW217327   6.514   7.714   4.446 -0.0747 -0.2794 -0.2182
 5717SOL     OW17328   8.673   4.809   7.156 -0.5610  0.7701 -0.5833
 5717SOL    HW117329   8.665   4.789   7.059 -1.0530 -0.1369 -0.3738
 5717SOL    HW217330   8.622   4.740   7.208  0.8344  0.4256  0.3801
 5718SOL     OW17331   0.029   4.706   0.127  0.5269 -0.4506  0.4317
 5718SOL    HW117332  -0.069   4.708   0.111  0.5533  0.1856  0.3209
 5718SOL    HW217333   0.078   4.697   0.040  0.5295 -3.3913  0.6307
 5719SOL     OW17334   8.436   2.594   5.933 -0.3840 -0.6430  0.1435
 5719SOL    HW117335   8.525   2.550   5.921  0.2556  0.6474 -0.0126
 5719SOL    HW217336   8.375   2.565   5.859  0.3658 -0.4480 -0.5638
 5720SOL     OW17337   8.660   3.466   2.216 -0.7458 -0.5582  0.1376
 5720SOL    HW117338   8.663   3.528   2.138 -2.5550  0.4693  0.8276
 5720SOL    HW217339   8.651   3.372   2.183 -0.5131 -0.2353 -0.8923
 5721SOL     OW17340   0.959   1.096   6.612  0.5624 -0.8768 -0.1735
 5721SOL    HW117341   0.932   1.004   6.583  1.8450 -1.6087  0.8392
 5721SOL    HW217342   1.048   1.118   6.571  0.3578 -0.1716 -0.2393
 5722SOL     OW17343   3.737   7.467   6.552  0.0962  0.0195 -0.5578
 5722SOL    HW117344   3.694   7.542   6.601 -1.1930 -0.7187 -0.5128
 5722SOL    HW217345   3.672   7.391   6.544  1.3713 -1.1048 -0.5597
 5723SOL     OW17346   6.523   1.891   0.524  0.3824  0.3152 -0.5568
 5723SOL    HW117347   6.561   1.809   0.566 -0.5024  0.6702  1.0210
 5723SOL    HW217348   6.528   1.967   0.589 -0.3011  1.1092 -1.4024
 5724SOL     OW17349   7.082   5.342   1.486  0.3658 -0.5532  0.5676
 5724SOL    HW117350   7.026   5.293   1.553 -1.1598  0.6556  0.2338
 5724SOL    HW217351   7.097   5.284   1.406 -1.9920 -0.2914 -0.1186
 5725SOL     OW17352   8.649   4.027   8.226  0.0968 -0.1821 -0.0746
 5725SOL    HW117353   8.563   4.012   8.275  0.0079  0.3802 -0.0539
 5725SOL    HW217354   8.644   3.985   8.136 -0.3483  0.1710 -0.2191
 5726SOL     OW17355   7.902   3.747   3.253 -0.0298  0.6176  0.5103
 5726SOL    HW117356   7.870   3.654   3.269 -1.3192  1.0357  0.4211
 5726SOL    HW217357   7.978   3.745   3.188  0.1148 -0.3887  0.6949
 5727SOL     OW17358   6.658   4.311   2.354  0.2267 -0.1121  0.4480
 5727SOL    HW117359   6.631   4.331   2.260  0.0681 -0.5054  0.4098
 5727SOL    HW217360   6.577   4.288   2.408  0.5908 -3.0873 -0.0994
 5728SOL     OW17361   0.577   1.772   0.816  0.4178 -0.0178 -0.6292
 5728SOL    HW117362   0.569   1.787   0.717  1.3895 -0.3177 -0.7609
 5728SOL    HW217363   0.496   1.810   0.861  0.8638  1.9061 -1.3348
 5729SOL     OW17364   3.849   7.186   8.674 -0.0442 -0.0405 -0.2317
 5729SOL    HW117365   3.786   7.254   8.636 -0.2841  0.1420  0.4702
 5729SOL    HW217366   3.818   7.094   8.650  0.5519  0.0900 -1.6115
 5730SOL     OW17367   3.078   7.594   0.241 -0.2668  0.0955 -0.1088
 5730SOL    HW117368   3.166   7.621   0.202  0.4447 -2.0567 -0.1373
 5730SOL    HW217369   3.022   7.550   0.171  0.3249 -2.2339  0.7849
 5731SOL     OW17370   2.244   7.102   2.668  0.2098  0.1993  0.2785
 5731SOL    HW117371   2.193   7.097   2.583  2.0859 -0.1351 -0.9031
 5731SOL    HW217372   2.292   7.190   2.673 -0.3472  0.4554  1.2822
 5732SOL     OW17373   5.632   7.456   7.695 -0.0503  0.1031 -0.3288
 5732SOL    HW117374   5.580   7.494   7.619  1.2543  0.8635 -0.8690
 5732SOL    HW217375   5.618   7.357   7.699 -1.7393  0.3287 -0.2704
 5733SOL     OW17376   3.205   0.456   7.378 -0.1344  0.0037 -0.0704
 5733SOL    HW117377   3.113   0.491   7.396 -0.3120 -0.5517  0.1255
 5733SOL    HW217378   3.201   0.357   7.363  0.4069  0.0037 -0.2523
 5734SOL     OW17379   2.407   4.152   5.604 -0.0047 -0.4172  0.0176
 5734SOL    HW117380   2.506   4.141   5.598  0.1648  0.5151  0.8551
 5734SOL    HW217381   2.362   4.066   5.580  1.0268 -1.0919  0.4498
 5735SOL     OW17382   8.655   1.002   2.935 -0.3380 -0.1915 -0.2447
 5735SOL    HW117383   8.590   0.942   2.982 -0.0315  0.1140  0.5888
 5735SOL    HW217384   8.699   0.951   2.861 -1.1205 -0.5660 -0.4663
 5736SOL     OW17385   2.187   4.281   4.077 -0.3958 -0.1666  0.1308
 5736SOL    HW117386   2.274   4.328   4.087  0.9120 -2.3480 -0.4627
 5736SOL    HW217387   2.134   4.291   4.161  0.6273  0.7676  0.6888
 5737SOL     OW17388   4.654   6.026   8.817 -0.2211  0.5599  0.5552
 5737SOL    HW117389   4.751   6.018   8.795 -0.2035  0.5729  0.6270
 5737SOL    HW217390   4.627   5.951   8.878  0.4063  2.0755  2.8354
 5738SOL     OW17391   7.023   6.229   5.172  0.1787 -0.5300 -0.0967
 5738SOL    HW117392   7.002   6.169   5.249 -0.2734 -1.5393 -0.9984
 5738SOL    HW217393   7.100   6.192   5.121  0.4306  0.1048 -0.1928
 5739SOL     OW17394   3.921   3.249   7.062 -0.3517  0.3417 -0.2210
 5739SOL    HW117395   3.874   3.308   6.996 -0.4746  0.9478  0.3918
 5739SOL    HW217396   3.985   3.189   7.014 -0.3332  0.8739 -0.8752
 5740SOL     OW17397   6.694   3.274   4.686  1.1364 -0.2098  0.1104
 5740SOL    HW117398   6.594   3.277   4.693  1.0334  0.7163 -1.3702
 5740SOL    HW217399   6.722   3.181   4.663  0.4718 -0.1312 -1.0783
 5741SOL     OW17400   7.669   0.212   5.208 -0.5159  0.6541  0.2224
 5741SOL    HW117401   7.736   0.283   5.229  0.4027  0.2124 -1.1310
 5741SOL    HW217402   7.666   0.197   5.110  0.1250 -1.9427  0.5442
 5742SOL     OW17403   3.670   7.044   3.199  0.0931  0.3960 -0.3606
 5742SOL    HW117404   3.617   7.076   3.120  0.9176 -1.0254 -1.5380
 5742SOL    HW217405   3.655   6.946   3.211  0.1264  0.5602  1.1646
 5743SOL     OW17406   4.753   3.642   1.416 -0.4720 -0.1121  0.6077
 5743SOL    HW117407   4.846   3.655   1.451 -0.2184  0.1204 -0.1133
 5743SOL    HW217408   4.733   3.544   1.411 -0.7674 -0.1443  1.9970
 5744SOL     OW17409   8.047   6.674   0.034  0.3900 -0.0678  0.0852
 5744SOL    HW117410   8.126   6.664   0.094  1.3517 -1.4742 -1.3133
 5744SOL    HW217411   7.990   6.750   0.065  1.6377  0.2084  1.8395
 5745SOL     OW17412   7.694   0.253   4.938 -0.1900 -0.3071  0.4998
 5745SOL    HW117413   7.691   0.349   4.963  1.0101 -0.0214 -0.3458
 5745SOL    HW217414   7.665   0.243   4.843  1.9415 -0.4304 -0.1982
 5746SOL     OW17415   0.872   8.505   8.719 -0.1598 -0.2010 -0.3104
 5746SOL    HW117416   0.917   8.433   8.667  0.1783  0.8421 -1.5116
 5746SOL    HW217417   0.872   8.590   8.666 -0.2021  0.8021  1.2183
 5747SOL     OW17418   4.145   2.047   6.880 -0.0766 -0.1623  0.3767
 5747SOL    HW117419   4.092   2.132   6.873  0.3683  0.1815  1.1140
 5747SOL    HW217420   4.161   2.011   6.788 -2.0644 -0.5883  0.1451
 5748SOL     OW17421   6.956   5.583   1.355 -0.4888  0.3594 -0.5099
 5748SOL    HW117422   6.998   5.673   1.348 -2.0172  1.0442 -1.0700
 5748SOL    HW217423   7.019   5.521   1.404  0.3683  1.8330  0.3191
 5749SOL     OW17424   7.276   4.966   4.832 -0.1485 -0.4920 -0.0729
 5749SOL    HW117425   7.207   4.985   4.902  0.0027  0.1309 -0.0819
 5749SOL    HW217426   7.316   4.876   4.848 -0.7846 -0.7539  0.0808
 5750SOL     OW17427   7.063   0.273   8.309  0.0050 -0.1584  0.8403
 5750SOL    HW117428   7.051   0.361   8.354 -3.0363 -0.1505  0.2301
 5750SOL    HW217429   7.157   0.241   8.322  0.9841  2.7822  1.6935
 5751SOL     OW17430   4.816   2.618   2.933 -0.2222  0.2609 -0.0441
 5751SOL    HW117431   4.880   2.573   2.995 -1.8796 -3.3636 -0.6846
 5751SOL    HW217432   4.862   2.640   2.847  0.6011 -0.7651  0.1038
 5752SOL     OW17433   5.747   0.217   7.254 -0.2660 -0.4223 -0.1528
 5752SOL    HW117434   5.700   0.133   7.281  0.6624 -0.0974  2.8021
 5752SOL    HW217435   5.686   0.295   7.267 -0.5598 -0.4488 -1.2672
 5753SOL     OW17436   1.632   6.346   0.255  0.8079  0.3460 -0.1574
 5753SOL    HW117437   1.694   6.327   0.180 -0.4196 -0.7837 -0.9393
 5753SOL    HW217438   1.681   6.343   0.342  1.9368  0.1177 -0.7980
 5754SOL     OW17439   2.301   6.081   0.523  0.3417 -0.5255 -0.4258
 5754SOL    HW117440   2.241   6.142   0.574 -0.6641 -1.5062 -0.3969
 5754SOL    HW217441   2.328   6.125   0.437  0.3210  0.2855 -0.0242
 5755SOL     OW17442   0.619   7.661   0.009 -0.0504  0.3566  0.2745
 5755SOL    HW117443   0.626   7.666   0.109 -0.0061  1.0403  0.2434
 5755SOL    HW217444   0.682   7.592  -0.026 -1.3537 -1.2019  0.8522
 5756SOL     OW17445   7.834   4.570   4.665 -0.4160  0.2900  0.3082
 5756SOL    HW117446   7.748   4.525   4.691 -0.7180 -0.0338 -1.1484
 5756SOL    HW217447   7.880   4.604   4.747 -1.9141  0.4455  1.1235
 5757SOL     OW17448   3.255   4.739   1.947  0.1856 -0.9014 -0.0212
 5757SOL    HW117449   3.311   4.774   2.022 -0.2710 -1.1452  0.4415
 5757SOL    HW217450   3.191   4.809   1.917  1.3167 -0.3111 -1.1528
 5758SOL     OW17451   3.023   2.058   1.146  0.5002 -0.0818  0.5135
 5758SOL    HW117452   3.103   2.009   1.114  0.2049 -0.3393  0.1658
 5758SOL    HW217453   3.001   2.132   1.083  0.0403 -0.4615  0.2198
 5759SOL     OW17454   1.342   3.343   6.684  0.1807 -0.2922 -0.3316
 5759SOL    HW117455   1.441   3.325   6.680  0.2572  0.1582 -0.4146
 5759SOL    HW217456   1.326   3.429   6.733 -0.0632  0.6864 -2.0744
 5760SOL     OW17457   7.858   5.409   7.711  0.0513 -0.7937 -0.4795
 5760SOL    HW117458   7.824   5.468   7.783 -0.1049 -1.0600 -0.3330
 5760SOL    HW217459   7.927   5.346   7.748  1.0173  0.0183 -0.8581
 5761SOL     OW17460   0.453   1.213   6.369 -0.6527 -0.1676  1.1749
 5761SOL    HW117461   0.519   1.232   6.296 -0.5709 -2.7607  0.4641
 5761SOL    HW217462   0.361   1.236   6.338 -0.4128  0.6295  1.0330
 5762SOL     OW17463   2.798   6.946   3.615 -0.0098 -0.3136  0.1394
 5762SOL    HW117464   2.803   6.872   3.682 -1.6014 -1.0163 -0.4505
 5762SOL    HW217465   2.704   6.956   3.584  0.3108  1.4861 -0.3591
 5763SOL     OW17466   8.035   0.660   3.552  1.0575  0.3347  0.3852
 5763SOL    HW117467   7.999   0.567   3.542  0.4273  0.7138 -1.0653
 5763SOL    HW217468   7.983   0.708   3.623 -0.8797  0.6150 -1.1240
 5764SOL     OW17469   6.115   1.703   6.906  0.3518 -0.2658  0.0707
 5764SOL    HW117470   6.169   1.631   6.949 -1.3874 -1.9836 -0.4747
 5764SOL    HW217471   6.145   1.716   6.811  1.5339  0.6915  0.5573
 5765SOL     OW17472   1.838   4.937   2.876  0.1376 -0.0581 -0.2408
 5765SOL    HW117473   1.826   5.027   2.834  1.4263  1.2731  2.0551
 5765SOL    HW217474   1.926   4.899   2.847  0.6288  0.4683  0.5236
 5766SOL     OW17475   4.245   3.849   6.122 -0.1194  0.0352 -0.1973
 5766SOL    HW117476   4.174   3.800   6.072  0.8602 -0.1781 -1.4387
 5766SOL    HW217477   4.278   3.792   6.198  0.1117 -0.7072 -0.8417
 5767SOL     OW17478   8.182   7.367   1.980  0.7863 -0.4700  0.3016
 5767SOL    HW117479   8.230   7.415   2.053 -1.6714  0.2071  1.5513
 5767SOL    HW217480   8.152   7.277   2.012  0.2536 -0.4308 -0.0692
 5768SOL     OW17481   7.564   4.356   5.650  0.2121 -0.1036 -0.1224
 5768SOL    HW117482   7.602   4.266   5.672  0.5840  0.1506  0.2899
 5768SOL    HW217483   7.470   4.362   5.684  0.4102 -0.1032  0.4300
 5769SOL     OW17484   2.824   1.232   7.070  0.1512  0.4397  0.0128
 5769SOL    HW117485   2.895   1.187   7.125 -0.5013 -1.2457 -0.4676
 5769SOL    HW217486   2.800   1.173   6.992 -0.9408  1.5205 -0.4933
 5770SOL     OW17487   3.716   3.303   2.603  0.1720  0.0882 -0.1885
 5770SOL    HW117488   3.678   3.214   2.581 -0.1008 -0.0011  0.6162
 5770SOL    HW217489   3.645   3.373   2.593  0.1079  0.0767  0.1891
 5771SOL     OW17490   8.851   6.733   8.662  0.1841  0.1199 -0.0355
 5771SOL    HW117491   8.873   6.726   8.565  0.5123  1.8057 -0.1244
 5771SOL    HW217492   8.934   6.750   8.715  0.2950 -2.6598  0.8352
 5772SOL     OW17493   2.008   4.579   2.201 -0.2535  0.2483  0.1131
 5772SOL    HW117494   2.071   4.562   2.277  0.6518  0.1970 -0.6348
 5772SOL    HW217495   1.924   4.528   2.217 -0.3474  0.7455  1.3993
 5773SOL     OW17496   1.150   0.523   2.381 -0.2892  0.3736  0.1866
 5773SOL    HW117497   1.114   0.526   2.288 -1.0459  1.3235  0.4983
 5773SOL    HW217498   1.094   0.581   2.441  0.0610 -0.3779  1.2788
 5774SOL     OW17499   3.767   7.823   1.103 -0.2949 -0.2436  0.0715
 5774SOL    HW117500   3.727   7.892   1.164 -1.9980 -1.9837  1.0130
 5774SOL    HW217501   3.801   7.868   1.020 -1.5268  1.7057  0.5583
 5775SOL     OW17502   3.846   8.210   1.115  0.0686  0.0389 -0.2476
 5775SOL    HW117503   3.835   8.290   1.173  1.0653  0.7573 -1.0160
 5775SOL    HW217504   3.943   8.185   1.110  0.0012 -0.0140 -1.5787
 5776SOL     OW17505   2.754   2.599   2.099 -0.3916 -0.0542 -0.2744
 5776SOL    HW117506   2.730   2.695   2.116  0.5790 -0.0577  1.2584
 5776SOL    HW217507   2.822   2.595   2.026  0.9417  0.5991  0.9012
 5777SOL     OW17508   8.697   1.462   5.179 -0.3062 -1.0095  0.0469
 5777SOL    HW117509   8.724   1.432   5.087  1.0608 -0.0774  0.1168
 5777SOL    HW217510   8.739   1.402   5.247 -0.0749 -0.7720  0.1105
 5778SOL     OW17511   4.418   8.564   5.914  0.1331 -0.4640 -0.5999
 5778SOL    HW117512   4.502   8.529   5.953  0.5289 -1.2537 -2.0929
 5778SOL    HW217513   4.349   8.492   5.913 -0.2368 -0.1189 -0.3212
 5779SOL     OW17514   5.202   0.187   1.001 -0.2431  0.1050  0.3699
 5779SOL    HW117515   5.261   0.261   1.031  0.7465 -0.4731 -0.1191
 5779SOL    HW217516   5.226   0.103   1.050 -1.5649  0.1505  1.1559
 5780SOL     OW17517   7.669   2.984   1.294 -0.6652 -0.1640  0.4304
 5780SOL    HW117518   7.760   2.979   1.251  0.9393  1.8318  3.2484
 5780SOL    HW217519   7.613   3.052   1.246 -0.6807 -1.2398 -1.1879
 5781SOL     OW17520   1.432   6.514   6.242  0.0403 -0.0282 -0.0624
 5781SOL    HW117521   1.405   6.433   6.190  1.1639 -1.2059  1.1006
 5781SOL    HW217522   1.532   6.520   6.245  0.0014  2.1175 -1.1363
 5782SOL     OW17523   6.521   0.133   5.703 -0.0039  0.1033  0.4296
 5782SOL    HW117524   6.587   0.059   5.718  0.9202  0.9008  0.4575
 5782SOL    HW217525   6.428   0.099   5.714  0.4003 -1.0840  0.2672
 5783SOL     OW17526   0.029   7.093   1.411 -0.4130 -0.0928 -0.1880
 5783SOL    HW117527   0.046   7.108   1.508  0.0376 -1.4657 -0.0437
 5783SOL    HW217528  -0.070   7.098   1.394 -0.5667 -0.6878  0.4916
 5784SOL     OW17529   3.940   1.252   0.157  0.1323  0.3647 -0.7322
 5784SOL    HW117530   3.915   1.194   0.080  1.2116  1.1878 -1.7284
 5784SOL    HW217531   3.873   1.325   0.167 -1.5943 -1.3056  0.9198
 5785SOL     OW17532   6.964   2.710   1.652 -0.2079  0.4441 -0.3745
 5785SOL    HW117533   6.893   2.727   1.721 -0.1618 -1.2901  0.1557
 5785SOL    HW217534   7.009   2.796   1.628 -1.3298  1.3184  0.5584
 5786SOL     OW17535   5.499   7.913   8.094  0.2472  0.5074  0.2919
 5786SOL    HW117536   5.501   7.819   8.060  1.7610 -0.1184  1.9761
 5786SOL    HW217537   5.527   7.975   8.021 -2.1371 -0.1313 -1.2902
 5787SOL     OW17538   8.035   3.432   8.279 -0.5301  0.1131  0.7473
 5787SOL    HW117539   7.958   3.377   8.246 -0.8738  0.4185  1.0437
 5787SOL    HW217540   8.066   3.493   8.206  0.1083 -0.7439  0.2832
 5788SOL     OW17541   6.230   5.930   4.624 -0.3485 -0.1763  0.4321
 5788SOL    HW117542   6.179   5.873   4.689 -0.2333 -0.0555  0.6295
 5788SOL    HW217543   6.237   5.882   4.537 -2.0579  0.4042 -0.0575
 5789SOL     OW17544   1.517   4.949   4.189 -0.7239  0.5172  0.5218
 5789SOL    HW117545   1.595   4.893   4.162 -1.0477  0.6363 -0.7389
 5789SOL    HW217546   1.541   5.046   4.180 -1.0484  0.5551 -0.0201
 5790SOL     OW17547   4.877   4.299   6.575 -0.1440  0.3703  0.3512
 5790SOL    HW117548   4.822   4.381   6.591 -3.2149 -1.2175 -1.1537
 5790SOL    HW217549   4.922   4.305   6.486 -1.2380  0.0655 -0.2484
 5791SOL     OW17550   7.001   7.642   1.260 -0.1553 -1.1323 -0.7200
 5791SOL    HW117551   6.995   7.594   1.172 -0.6034 -1.2365 -0.6298
 5791SOL    HW217552   7.018   7.739   1.243 -1.8949 -0.8465 -0.9770
 5792SOL     OW17553   0.839   4.511   7.488  0.1446  0.0454  0.6885
 5792SOL    HW117554   0.850   4.610   7.489 -2.3688  0.4233 -1.0669
 5792SOL    HW217555   0.927   4.468   7.511  2.0939  2.6358 -1.2949
 5793SOL     OW17556   5.997   7.285   1.406  0.6421 -0.0620  0.1852
 5793SOL    HW117557   6.075   7.224   1.418  0.8298  0.6215  3.4689
 5793SOL    HW217558   5.926   7.262   1.473 -0.4285  1.6447 -0.2898
 5794SOL     OW17559   1.986   0.522   2.500 -0.4709 -0.0090  0.4961
 5794SOL    HW117560   2.065   0.549   2.554 -1.4367 -0.6664  2.3001
 5794SOL    HW217561   2.014   0.506   2.405  1.5166 -0.1278  1.0725
 5795SOL     OW17562   7.812   4.900   3.143  0.0800 -0.1166 -0.4772
 5795SOL    HW117563   7.819   4.999   3.157  1.5054 -0.3076  0.3291
 5795SOL    HW217564   7.903   4.862   3.127 -0.4869 -1.2714 -1.0500
 5796SOL     OW17565   0.654   0.209   4.327 -0.2617 -0.0578  0.1866
 5796SOL    HW117566   0.648   0.164   4.416 -1.4907 -0.5930 -0.1514
 5796SOL    HW217567   0.578   0.272   4.315 -0.3419 -0.2928 -0.6505
 5797SOL     OW17568   8.304   1.633   7.863  0.1631 -0.6734 -0.2104
 5797SOL    HW117569   8.285   1.731   7.848  3.5736 -0.0058 -0.9380
 5797SOL    HW217570   8.283   1.610   7.957  0.9574  1.2441  0.4929
 5798SOL     OW17571   4.819   4.105   2.896  0.0947 -0.5254 -0.4643
 5798SOL    HW117572   4.775   4.171   2.956 -0.7164 -0.1367 -1.4457
 5798SOL    HW217573   4.811   4.137   2.801  2.3223 -0.5422 -0.7134
 5799SOL     OW17574   8.567   7.682   7.091 -0.2454 -0.1820  0.2742
 5799SOL    HW117575   8.519   7.595   7.089 -2.2664  0.8881  0.0116
 5799SOL    HW217576   8.657   7.672   7.049 -1.2740 -1.6665 -1.6854
 5800SOL     OW17577   6.089   0.248   3.080  0.0179  0.0280 -0.1428
 5800SOL    HW117578   6.081   0.281   2.986  3.6971 -0.2011 -0.6618
 5800SOL    HW217579   6.147   0.310   3.133  1.5485 -1.9932  0.7151
 5801SOL     OW17580   2.414   8.447   8.855  0.4974  0.4891  0.0946
 5801SOL    HW117581   2.333   8.406   8.898  0.4935  0.8575  0.4457
 5801SOL    HW217582   2.494   8.432   8.912  0.3216  1.8169  0.7498
 5802SOL     OW17583   8.345   6.929   6.593  0.6289 -0.7258  0.8066
 5802SOL    HW117584   8.370   6.930   6.496  1.7495 -0.5107  1.0795
 5802SOL    HW217585   8.324   6.835   6.621 -1.5131 -0.5546 -0.0562
 5803SOL     OW17586   2.796   3.694   3.941 -0.4092 -0.4997 -0.6005
 5803SOL    HW117587   2.769   3.720   3.848  1.2602  0.0273 -0.9761
 5803SOL    HW217588   2.787   3.774   4.001  1.4507  0.0702 -1.0135
 5804SOL     OW17589   4.239   1.651   4.120  0.5786  0.6031  0.0095
 5804SOL    HW117590   4.154   1.600   4.127  0.7927  0.1185 -0.7065
 5804SOL    HW217591   4.227   1.744   4.156 -0.5949  0.9353 -1.1562
 5805SOL     OW17592   2.920   4.281   6.367 -0.6310 -0.6089  0.3423
 5805SOL    HW117593   2.927   4.278   6.267  0.7709 -0.0060  0.3935
 5805SOL    HW217594   2.832   4.244   6.395 -1.4947  0.1592 -1.1745
 5806SOL     OW17595   0.388   2.774   7.242  0.0048  0.2714  0.4603
 5806SOL    HW117596   0.376   2.867   7.208 -1.5121  0.5336  1.5629
 5806SOL    HW217597   0.477   2.765   7.286  0.8666  0.6829 -1.1536
 5807SOL     OW17598   0.550   1.701   1.974 -0.2185  0.2749  0.4303
 5807SOL    HW117599   0.583   1.751   1.894  0.8162  0.4895  0.9667
 5807SOL    HW217600   0.609   1.621   1.990  0.0473  0.6404  1.3812
 5808SOL     OW17601   2.655   4.729   5.625 -0.1007 -0.3376  0.4654
 5808SOL    HW117602   2.655   4.692   5.718  1.6372  0.5342  0.8417
 5808SOL    HW217603   2.644   4.654   5.560  0.4477 -1.1796  1.3085
 5809SOL     OW17604   0.896   5.926   6.770 -0.3018  0.2616 -0.0434
 5809SOL    HW117605   0.806   5.969   6.766 -0.2777  0.2292 -1.3543
 5809SOL    HW217606   0.962   5.983   6.721 -0.1712 -0.9753 -1.4074
 5810SOL     OW17607   2.724   4.428   8.687 -0.3142 -0.2010  0.0765
 5810SOL    HW117608   2.690   4.389   8.772 -2.8690  1.1281 -0.2374
 5810SOL    HW217609   2.649   4.436   8.621  1.0435  1.1302 -1.4150
 5811SOL     OW17610   0.727   4.938   5.945  0.1905 -0.6572 -0.6770
 5811SOL    HW117611   0.721   4.887   6.031  0.9918  0.4341  0.0589
 5811SOL    HW217612   0.783   5.020   5.958 -0.1482 -0.1526 -2.1005
 5812SOL     OW17613   2.675   0.533   2.355  0.0968  0.5712 -0.1350
 5812SOL    HW117614   2.654   0.491   2.266 -0.8515  0.7844 -0.0242
 5812SOL    HW217615   2.770   0.566   2.355  0.1046  0.5788 -1.0680
 5813SOL     OW17616   6.100   0.635   4.292 -0.2999 -0.1856  0.3147
 5813SOL    HW117617   6.080   0.550   4.243 -0.1124 -0.3253  0.4812
 5813SOL    HW217618   6.124   0.614   4.386 -0.0538  0.0399  0.3020
 5814SOL     OW17619   3.273   4.467   0.676  0.0947 -0.2703  0.3262
 5814SOL    HW117620   3.346   4.463   0.608 -0.0929  0.1263  0.0989
 5814SOL    HW217621   3.198   4.407   0.646 -0.7515  1.2556 -0.7416
 5815SOL     OW17622   3.332   4.108   7.197 -0.0412 -0.6766  0.1212
 5815SOL    HW117623   3.372   4.163   7.270  1.3593 -1.5584  0.0445
 5815SOL    HW217624   3.324   4.013   7.227 -2.1335 -0.5573  0.1292
 5816SOL     OW17625   0.668   7.199   6.134  0.3838  0.2201 -0.2612
 5816SOL    HW117626   0.701   7.215   6.227  1.9353 -0.8148 -0.5823
 5816SOL    HW217627   0.585   7.251   6.118  0.6042  1.1399  1.3991
 5817SOL     OW17628   8.407   2.261   0.084 -0.2004  0.1915 -0.2336
 5817SOL    HW117629   8.396   2.268  -0.015 -0.6449  0.8514 -0.1430
 5817SOL    HW217630   8.497   2.296   0.110  0.7462 -1.8486 -0.5982
 5818SOL     OW17631   6.992   5.168   3.237 -0.3333 -0.3069  0.7069
 5818SOL    HW117632   6.914   5.110   3.213 -0.7750  0.9020 -0.9228
 5818SOL    HW217633   7.054   5.117   3.297 -1.1797 -2.1174  0.1044
 5819SOL     OW17634   8.705   8.113   2.099  0.2799 -0.6267  0.3736
 5819SOL    HW117635   8.616   8.119   2.145  0.8683 -1.2151  1.6572
 5819SOL    HW217636   8.749   8.027   2.124  1.0926 -0.4706 -0.4759
 5820SOL     OW17637   7.977   8.589   3.586  0.4670  0.2415  0.0464
 5820SOL    HW117638   7.963   8.492   3.569 -1.3103  0.5793 -0.5465
 5820SOL    HW217639   7.896   8.641   3.558  1.4610  1.9277  0.1336
 5821SOL     OW17640   6.814   4.578   4.234  0.2334  0.1705  0.1203
 5821SOL    HW117641   6.891   4.638   4.257 -0.1574  0.7621 -0.0963
 5821SOL    HW217642   6.728   4.622   4.260 -0.0111 -0.7713  0.9850
 5822SOL     OW17643   4.353   8.201   3.174  0.3477 -0.6353 -0.0024
 5822SOL    HW117644   4.373   8.159   3.262 -0.2627  2.9670  2.0620
 5822SOL    HW217645   4.414   8.279   3.160 -2.0660  1.2278 -0.8622
 5823SOL     OW17646   2.264   5.689   5.026  0.3135 -0.5167  0.2450
 5823SOL    HW117647   2.239   5.721   4.934 -3.1090 -0.7566  0.9719
 5823SOL    HW217648   2.267   5.589   5.027  0.9566 -0.5011  0.2762
 5824SOL     OW17649   5.149   4.356   3.161  0.0996 -0.2217  0.0213
 5824SOL    HW117650   5.170   4.275   3.217  0.8867 -0.4174 -0.5454
 5824SOL    HW217651   5.214   4.429   3.182  0.2511 -0.2147 -0.4611
 5825SOL     OW17652   1.242   1.273   2.187 -0.1084 -0.5992 -0.2814
 5825SOL    HW117653   1.158   1.304   2.144  1.2942  1.1730 -1.9320
 5825SOL    HW217654   1.249   1.174   2.178 -2.3520 -0.8962  0.6216
 5826SOL     OW17655   8.158   1.364   5.709 -0.8709 -0.3795 -0.1444
 5826SOL    HW117656   8.116   1.454   5.720  1.3942  0.7656 -0.1988
 5826SOL    HW217657   8.194   1.355   5.616 -2.6623 -2.1240 -0.7274
 5827SOL     OW17658   0.519   2.830   8.164 -0.4289 -0.2826 -0.3544
 5827SOL    HW117659   0.430   2.846   8.122  0.7174 -0.9947 -3.3041
 5827SOL    HW217660   0.521   2.738   8.204 -0.8615 -0.4864 -0.7826
 5828SOL     OW17661   6.824   1.340   3.372 -0.2379  0.2517  0.2094
 5828SOL    HW117662   6.767   1.411   3.413 -2.3043 -0.2976 -1.5141
 5828SOL    HW217663   6.813   1.254   3.423 -1.9881 -0.1649 -0.8020
 5829SOL     OW17664   3.698   3.061   0.640 -0.0978 -0.3103  0.4351
 5829SOL    HW117665   3.678   3.038   0.735 -0.4727  0.0093  0.4388
 5829SOL    HW217666   3.795   3.081   0.630 -0.1737  0.3512  0.9102
 5830SOL     OW17667   4.126   7.599   4.205 -0.4189 -0.2265 -0.7158
 5830SOL    HW117668   4.153   7.610   4.110 -2.6149 -0.8853 -1.4845
 5830SOL    HW217669   4.080   7.510   4.216  0.1426 -0.3319  1.0563
 5831SOL     OW17670   3.486   7.652   8.233  0.3248  0.2589 -0.1509
 5831SOL    HW117671   3.459   7.666   8.328  0.2070 -0.6962 -0.0374
 5831SOL    HW217672   3.584   7.667   8.223  0.8241 -2.0827  0.6489
 5832SOL     OW17673   5.271   3.220   5.232 -0.1370 -0.2366  0.1910
 5832SOL    HW117674   5.229   3.213   5.323  0.3673 -0.8729  0.3883
 5832SOL    HW217675   5.360   3.265   5.240  0.3218 -1.1157  0.1651
 5833SOL     OW17676   2.708   8.683   5.080 -0.3834 -0.1563  0.3987
 5833SOL    HW117677   2.705   8.624   5.160  0.5870 -0.9395 -0.1122
 5833SOL    HW217678   2.727   8.777   5.109 -0.2485 -0.3909  1.0954
 5834SOL     OW17679   3.674   4.693   4.609  0.3326  0.1442 -0.1226
 5834SOL    HW117680   3.707   4.735   4.693  0.3457  1.8587 -0.9421
 5834SOL    HW217681   3.592   4.640   4.628  0.4526  0.3418  0.9978
 5835SOL     OW17682   3.900   7.571   0.906 -0.7200  0.6401  0.0143
 5835SOL    HW117683   3.819   7.571   0.964 -1.1138  0.1145 -0.5188
 5835SOL    HW217684   3.885   7.634   0.829 -1.3564 -0.7499 -1.0472
 5836SOL     OW17685   7.581   3.307   6.062  0.0388  0.2370  0.2615
 5836SOL    HW117686   7.650   3.372   6.030 -0.1894  0.0881 -0.5578
 5836SOL    HW217687   7.497   3.356   6.085  0.1519  0.3250  0.4970
 5837SOL     OW17688   5.096   5.102   5.860 -0.0801 -0.1241 -0.0060
 5837SOL    HW117689   5.194   5.084   5.852  0.3753  1.3069  1.6145
 5837SOL    HW217690   5.075   5.129   5.954 -2.1218 -0.7842 -0.2247
 5838SOL     OW17691   5.807   8.037   2.193 -0.4322  0.2161  0.9133
 5838SOL    HW117692   5.735   8.107   2.187 -0.6065 -0.0930 -2.6450
 5838SOL    HW217693   5.896   8.082   2.197 -0.5863  0.6914 -0.4746
 5839SOL     OW17694   2.317   6.692   0.266 -0.0637 -0.2741  0.4080
 5839SOL    HW117695   2.227   6.726   0.293  0.2056 -1.0067  2.4329
 5839SOL    HW217696   2.362   6.759   0.207 -1.6792  0.3777 -0.1206
 5840SOL     OW17697   0.048   7.549   3.710  0.2663  0.0970 -0.3660
 5840SOL    HW117698   0.036   7.628   3.770  1.9756 -0.3127  0.5722
 5840SOL    HW217699   0.026   7.465   3.761 -2.5517 -0.0574 -1.6428
 5841SOL     OW17700   4.501   5.113   6.160  0.5191  0.1025  0.2577
 5841SOL    HW117701   4.436   5.182   6.191  0.2499  0.5492 -1.2189
 5841SOL    HW217702   4.463   5.064   6.081  2.4310  1.2468 -1.4847
 5842SOL     OW17703   7.548   8.604   2.780 -0.1873 -0.7350 -0.2849
 5842SOL    HW117704   7.560   8.598   2.681 -0.0151 -0.2177 -0.2955
 5842SOL    HW217705   7.556   8.512   2.820 -0.7379 -1.0103 -0.7994
 5843SOL     OW17706   2.609   4.358   4.885 -0.1863 -0.0381 -0.7052
 5843SOL    HW117707   2.597   4.456   4.900  0.7191 -0.2390  1.6327
 5843SOL    HW217708   2.707   4.336   4.882 -0.3210 -1.1447  1.2232
 5844SOL     OW17709   6.864   2.206   3.892  0.4745  0.0891 -0.5775
 5844SOL    HW117710   6.884   2.296   3.932  0.3789  0.1628 -0.6958
 5844SOL    HW217711   6.923   2.191   3.813  1.1656 -0.3595  0.0196
 5845SOL     OW17712   4.510   3.992   0.881  0.0058  0.0613 -0.5738
 5845SOL    HW117713   4.519   3.952   0.790  1.1510  1.0473 -0.9075
 5845SOL    HW217714   4.599   3.993   0.926 -0.1787  1.3990 -0.2127
 5846SOL     OW17715   3.215   1.630   7.641 -0.4203 -0.1968  0.3289
 5846SOL    HW117716   3.138   1.577   7.677 -1.4024  0.6335 -0.5278
 5846SOL    HW217717   3.190   1.673   7.555  0.9946  0.1288  0.0495
 5847SOL     OW17718   0.937   4.916   3.949  0.2347  0.1424 -0.7708
 5847SOL    HW117719   0.869   4.844   3.930  1.8337 -1.2554 -1.5209
 5847SOL    HW217720   1.011   4.877   4.004 -0.0550  1.9241  0.9813
 5848SOL     OW17721   2.529   0.586   6.162  0.4064  0.4463  0.3324
 5848SOL    HW117722   2.532   0.670   6.217  0.2564 -0.0346  1.0935
 5848SOL    HW217723   2.510   0.609   6.067  1.5462  1.3756  0.2977
 5849SOL     OW17724   5.161   5.940   0.398  0.2265 -0.3577 -0.1169
 5849SOL    HW117725   5.086   5.948   0.333  0.0261 -2.7260 -0.2742
 5849SOL    HW217726   5.183   5.843   0.412  2.7012  0.2188  0.5687
 5850SOL     OW17727   2.251   7.706   1.627 -0.1918  0.1337  0.1100
 5850SOL    HW117728   2.167   7.674   1.582 -0.6329  2.1577 -0.6162
 5850SOL    HW217729   2.315   7.629   1.636 -0.9210 -0.8299 -2.1059
 5851SOL     OW17730   0.131   3.646   2.253  0.2989  0.1376 -0.4041
 5851SOL    HW117731   0.048   3.695   2.281  0.2774  0.0112 -0.2441
 5851SOL    HW217732   0.110   3.549   2.243 -0.3707  0.5187 -3.5164
 5852SOL     OW17733   5.701   3.031   7.269 -0.8046 -0.4838  0.2337
 5852SOL    HW117734   5.703   3.086   7.353 -1.6697  0.9680 -0.6565
 5852SOL    HW217735   5.606   3.013   7.243 -0.5363 -1.5303 -0.0674
 5853SOL     OW17736   0.011   1.053   4.281  0.4258  0.0187 -0.1972
 5853SOL    HW117737  -0.032   0.977   4.232 -0.5919 -0.2390  1.0483
 5853SOL    HW217738  -0.059   1.112   4.320  1.0844  3.0440 -3.1177
 5854SOL     OW17739   0.645   6.685   4.888  0.8262  0.1244  0.1745
 5854SOL    HW117740   0.555   6.678   4.931  0.6850 -0.0382 -0.1490
 5854SOL    HW217741   0.691   6.597   4.891  0.0963 -0.3675 -1.5753
 5855SOL     OW17742   2.582   2.317   3.405  0.6328  0.1433  0.4864
 5855SOL    HW117743   2.628   2.239   3.363 -0.8031 -0.7315  0.4645
 5855SOL    HW217744   2.485   2.296   3.416 -0.0338  2.3413 -0.5703
 5856SOL     OW17745   6.098   3.633   7.704  0.8321 -0.2028  0.2212
 5856SOL    HW117746   6.102   3.652   7.802  1.2248 -0.3805  0.2442
 5856SOL    HW217747   6.014   3.582   7.683  1.0622 -0.7426  0.5721
 5857SOL     OW17748   6.414   5.021   0.704 -0.1100  0.5818 -0.0314
 5857SOL    HW117749   6.450   4.947   0.761  0.8312  1.3122  0.3467
 5857SOL    HW217750   6.460   5.019   0.615  0.0075  0.7997  0.0261
 5858SOL     OW17751   2.425   4.952   1.603 -0.6365  0.0676  0.0731
 5858SOL    HW117752   2.439   4.853   1.609  0.3641  0.2935  2.8725
 5858SOL    HW217753   2.328   4.973   1.614 -0.6808 -0.5414  0.8998
 5859SOL     OW17754   2.760   6.161   4.613 -0.0704  0.6226 -0.4771
 5859SOL    HW117755   2.847   6.181   4.567 -0.3600 -0.7506 -1.7159
 5859SOL    HW217756   2.713   6.247   4.635  1.0677  1.3579 -0.8387
 5860SOL     OW17757   6.060   6.760   7.086 -0.0689  0.4541 -0.3249
 5860SOL    HW117758   6.014   6.841   7.123  2.4460  2.5424 -1.4379
 5860SOL    HW217759   6.001   6.716   7.018 -0.6798  2.6857 -1.3271
 5861SOL     OW17760   7.410   0.891   0.469 -0.0885 -0.0687 -0.1869
 5861SOL    HW117761   7.486   0.830   0.446 -1.6142 -1.8260 -0.8274
 5861SOL    HW217762   7.381   0.939   0.386 -1.9224 -2.1097 -0.8027
 5862SOL     OW17763   6.088   6.149   7.204  0.0465 -0.3308 -0.0341
 5862SOL    HW117764   6.075   6.148   7.105  0.0705 -2.4517 -0.0661
 5862SOL    HW217765   6.183   6.172   7.225 -0.0398  0.4644 -0.4636
 5863SOL     OW17766   7.885   8.458   4.228 -0.2625  0.2181  0.0718
 5863SOL    HW117767   7.919   8.551   4.245  1.0744 -0.2759  0.2428
 5863SOL    HW217768   7.962   8.395   4.222 -1.0163 -0.6331 -1.7570
 5864SOL     OW17769   1.737   0.531   0.246 -0.9898  0.3962  0.6229
 5864SOL    HW117770   1.792   0.448   0.260 -0.7577  0.8230  2.4448
 5864SOL    HW217771   1.734   0.552   0.148 -0.0668 -1.0826  0.2339
 5865SOL     OW17772   0.924   6.179   2.340  0.0594  0.0132 -0.8022
 5865SOL    HW117773   0.831   6.211   2.359 -0.2448 -1.3649  0.1885
 5865SOL    HW217774   0.988   6.227   2.400 -0.4919 -1.7230  1.2999
 5866SOL     OW17775   5.041   4.166   1.025  0.2302 -0.2873  0.0484
 5866SOL    HW117776   5.073   4.106   1.099  0.3195  0.0269  0.2636
 5866SOL    HW217777   5.039   4.261   1.056 -1.9853 -0.3999  0.4254
 5867SOL     OW17778   7.513   2.198   0.434 -0.1566 -0.0211  0.0589
 5867SOL    HW117779   7.548   2.137   0.504 -0.6620 -2.2677 -1.5412
 5867SOL    HW217780   7.577   2.200   0.357 -0.1857  1.4692  0.0338
 5868SOL     OW17781   8.851   8.011   3.201 -0.3575  0.4428 -0.4431
 5868SOL    HW117782   8.781   7.956   3.156 -1.6202  0.5642  1.2439
 5868SOL    HW217783   8.864   7.978   3.295  2.3940 -0.0107 -0.8993
 5869SOL     OW17784   2.226   2.036   5.991 -0.2397 -0.5516 -0.0406
 5869SOL    HW117785   2.163   1.993   5.925 -0.4232  0.7333 -0.7324
 5869SOL    HW217786   2.278   2.108   5.945  0.7160 -0.6266  0.8817
 5870SOL     OW17787   7.166   7.672   0.414  0.2589  0.3390  0.0963
 5870SOL    HW117788   7.206   7.613   0.344  0.0540  1.2989 -0.8691
 5870SOL    HW217789   7.220   7.667   0.498  0.6457 -0.6631 -0.2013
 5871SOL     OW17790   3.358   3.257   2.196  0.1494  0.5752  0.6107
 5871SOL    HW117791   3.328   3.193   2.125 -2.7589  2.3922  0.0403
 5871SOL    HW217792   3.388   3.205   2.276 -2.2575 -1.5791  0.2614
 5872SOL     OW17793   4.369   4.639   0.914 -0.0775 -0.4369 -0.0625
 5872SOL    HW117794   4.448   4.595   0.956 -0.6213 -0.2711  1.1978
 5872SOL    HW217795   4.285   4.591   0.942 -0.4460 -0.4988 -1.2241
 5873SOL     OW17796   8.122   7.512   3.437  0.5976 -0.0061  0.0144
 5873SOL    HW117797   8.029   7.545   3.424  0.5456 -0.0765  0.2059
 5873SOL    HW217798   8.150   7.460   3.356 -0.0200 -1.1354  0.4872
 5874SOL     OW17799   8.375   2.027   1.003 -0.1901  0.0090 -0.0909
 5874SOL    HW117800   8.280   2.031   0.971 -0.2223  0.6480  0.0676
 5874SOL    HW217801   8.416   2.118   0.996 -0.5454  0.4969  2.7180
 5875SOL     OW17802   5.682   0.837   5.391  0.5518  0.1918 -0.2910
 5875SOL    HW117803   5.600   0.788   5.420  0.5024 -1.0914 -2.3865
 5875SOL    HW217804   5.762   0.780   5.408  0.6684  0.0823 -1.1764
 5876SOL     OW17805   2.154   8.334   1.502  0.1662  0.8024  0.0278
 5876SOL    HW117806   2.179   8.238   1.512 -0.9844  0.3260 -1.2748
 5876SOL    HW217807   2.228   8.383   1.456 -0.7855 -0.4010 -3.0480
 5877SOL     OW17808   2.445   4.386   4.088 -0.1909 -0.3035 -0.4692
 5877SOL    HW117809   2.449   4.413   3.992 -2.1782 -2.1322 -1.1725
 5877SOL    HW217810   2.501   4.447   4.143  2.8841 -0.5586 -3.0551
 5878SOL     OW17811   7.634   4.491   6.948  0.1960  0.2839 -0.2563
 5878SOL    HW117812   7.557   4.513   6.888  0.5371  1.6317 -0.2342
 5878SOL    HW217813   7.629   4.548   7.030  0.1963 -0.9503  0.6163
 5879SOL     OW17814   8.373   5.968   8.248 -0.0490  0.1770 -0.4635
 5879SOL    HW117815   8.302   6.002   8.309  0.2396  0.7971 -0.4634
 5879SOL    HW217816   8.373   5.868   8.248 -2.3740  0.1002 -2.1326
 5880SOL     OW17817   4.188   4.696   8.764 -0.7130 -0.1106  0.4142
 5880SOL    HW117818   4.223   4.604   8.780  0.4452  0.6229  2.4591
 5880SOL    HW217819   4.090   4.691   8.741 -0.1860 -1.9514 -1.7448
 5881SOL     OW17820   4.805   7.602   5.063 -0.0228 -0.3597 -0.4461
 5881SOL    HW117821   4.877   7.600   4.995 -0.2382  2.0155 -0.8244
 5881SOL    HW217822   4.720   7.567   5.023  0.2830 -0.6853 -0.8157
 5882SOL     OW17823   8.003   1.435   8.060 -0.2265 -0.2667 -0.4081
 5882SOL    HW117824   7.907   1.460   8.071 -0.6689 -1.8291 -0.5378
 5882SOL    HW217825   8.046   1.427   8.150 -0.6737 -1.1911 -0.2613
 5883SOL     OW17826   5.777   4.802   8.594 -0.8466  0.0151 -0.0677
 5883SOL    HW117827   5.677   4.805   8.586 -1.0992 -1.7568  1.6358
 5883SOL    HW217828   5.804   4.831   8.686  0.0614 -0.8987 -0.0173
 5884SOL     OW17829   2.056   7.291   5.037  0.3300  0.3885  0.0675
 5884SOL    HW117830   2.125   7.305   5.108  2.1098 -1.0799 -1.2536
 5884SOL    HW217831   1.975   7.249   5.076  1.1026  0.0116  1.3045
 5885SOL     OW17832   2.504   3.174   5.013 -0.4177 -0.2781  0.0022
 5885SOL    HW117833   2.567   3.098   4.996 -1.2699 -1.7779  2.8904
 5885SOL    HW217834   2.543   3.258   4.975  0.2523 -2.1601 -3.9322
 5886SOL     OW17835   6.182   1.187   5.150 -0.0945 -0.6889  0.2711
 5886SOL    HW117836   6.217   1.122   5.217 -1.1739 -0.0849  1.4710
 5886SOL    HW217837   6.088   1.213   5.174  0.1677  1.0177 -0.3637
 5887SOL     OW17838   1.146   4.481   1.986  0.0498  0.2873  0.1654
 5887SOL    HW117839   1.167   4.403   2.046 -2.7149 -0.1247  0.7647
 5887SOL    HW217840   1.163   4.456   1.891  0.4297 -0.6041  0.4578
 5888SOL     OW17841   4.037   7.124   5.658  0.5175 -1.0824  0.3097
 5888SOL    HW117842   4.041   7.038   5.709  0.6920 -0.5046  1.2946
 5888SOL    HW217843   4.054   7.200   5.720 -0.4625 -0.2729 -0.3928
 5889SOL     OW17844   6.797   5.877   3.868  0.3689  0.1379  0.2460
 5889SOL    HW117845   6.698   5.875   3.885  0.3349 -0.8157 -0.0003
 5889SOL    HW217846   6.836   5.787   3.887  1.5745  1.0549  2.4528
 5890SOL     OW17847   2.551   2.021   8.828  0.1030  0.4246 -0.3569
 5890SOL    HW117848   2.532   1.923   8.831 -1.4868  0.7244  0.8643
 5890SOL    HW217849   2.650   2.035   8.819  0.5681 -1.3150  1.1850
 5891SOL     OW17850   2.631   7.608   3.712  0.2913  0.1827 -0.0890
 5891SOL    HW117851   2.595   7.692   3.672  0.6871  0.6136  0.4320
 5891SOL    HW217852   2.633   7.617   3.812  0.0693 -0.5568 -0.0109
 5892SOL     OW17853   8.771   7.604   6.464 -0.8142  0.0365 -0.1455
 5892SOL    HW117854   8.703   7.532   6.476 -0.4953 -0.0480  1.2802
 5892SOL    HW217855   8.738   7.688   6.507  0.5071 -0.3621  1.7677
 5893SOL     OW17856   1.525   6.979   0.887 -0.1622 -0.0940  0.7920
 5893SOL    HW117857   1.525   7.074   0.919 -1.3976 -0.2839  1.4071
 5893SOL    HW217858   1.436   6.958   0.845  0.2224 -0.8872  0.3604
 5894SOL     OW17859   8.212   7.644   1.495  0.0997 -0.7172 -0.0557
 5894SOL    HW117860   8.161   7.570   1.540 -0.8798  0.0890  0.1821
 5894SOL    HW217861   8.191   7.646   1.398 -0.0697 -0.5835 -0.0154
 5895SOL     OW17862   8.491   5.276   1.686 -0.0626 -0.0761  0.4161
 5895SOL    HW117863   8.515   5.321   1.772  0.8271 -0.4580  0.3824
 5895SOL    HW217864   8.543   5.191   1.678 -2.2713 -1.5221  0.8352
 5896SOL     OW17865   6.200   0.353   6.231  0.0096  0.3084 -0.2825
 5896SOL    HW117866   6.176   0.364   6.328  0.0811 -0.9812 -0.0922
 5896SOL    HW217867   6.236   0.439   6.195 -0.8308  1.0518  0.5967
 5897SOL     OW17868   4.469   1.754   3.282  0.1879  0.8289 -0.2573
 5897SOL    HW117869   4.448   1.803   3.367 -0.0088  1.6757 -0.7869
 5897SOL    HW217870   4.446   1.658   3.293 -1.3118  1.2099  0.1376
 5898SOL     OW17871   6.402   4.261   4.479 -0.1740 -0.0816 -0.5466
 5898SOL    HW117872   6.370   4.205   4.555  0.2621  0.7042  0.2401
 5898SOL    HW217873   6.334   4.261   4.406  0.4166 -2.7817 -1.2135
 5899SOL     OW17874   8.405   5.283   6.124  0.2421  0.4591 -0.0300
 5899SOL    HW117875   8.307   5.283   6.101  0.1119 -0.5010  0.4667
 5899SOL    HW217876   8.455   5.232   6.054  0.4940  1.5676 -0.6690
 5900SOL     OW17877   2.599   7.428   3.029 -0.1658 -0.2842  0.5598
 5900SOL    HW117878   2.577   7.374   2.948  0.4124  1.0033 -0.5032
 5900SOL    HW217879   2.660   7.503   3.003  0.9797 -0.5174  2.4146
 5901SOL     OW17880   0.281   5.227   2.221 -0.1403  0.2918 -0.0295
 5901SOL    HW117881   0.243   5.244   2.312 -2.2731 -0.0829 -0.7753
 5901SOL    HW217882   0.345   5.151   2.224 -1.6169 -0.9703  0.8722
 5902SOL     OW17883   4.947   6.340   2.680  0.5492 -0.1707  0.4204
 5902SOL    HW117884   4.945   6.312   2.584  0.7047  0.6217  0.1730
 5902SOL    HW217885   4.994   6.428   2.687 -0.5763  0.4011  1.0542
 5903SOL     OW17886   1.578   4.946   7.017  0.4856  0.0194  0.3111
 5903SOL    HW117887   1.496   4.896   6.989  0.0370 -0.5928  2.5258
 5903SOL    HW217888   1.658   4.887   7.008  0.7885  0.7029 -2.1031
 5904SOL     OW17889   5.775   6.445   7.202  0.3579  0.3298  0.0925
 5904SOL    HW117890   5.810   6.351   7.212 -1.4019 -0.2536  1.2238
 5904SOL    HW217891   5.821   6.505   7.267  1.6115  0.3204 -0.7493
 5905SOL     OW17892   7.247   7.834   4.247 -0.1605 -0.0618 -0.1996
 5905SOL    HW117893   7.179   7.844   4.174 -2.2214  0.2223  1.6488
 5905SOL    HW217894   7.338   7.854   4.211 -1.0733 -0.0256 -2.6819
 5906SOL     OW17895   8.046   1.592   5.438 -1.0076  0.1046 -0.1051
 5906SOL    HW117896   7.965   1.548   5.477  0.5177 -3.7495 -0.8392
 5906SOL    HW217897   8.053   1.569   5.341 -0.9184  3.5476 -1.0649
 5907SOL     OW17898   3.639   2.895   4.371 -0.3232  0.3983  0.5191
 5907SOL    HW117899   3.726   2.892   4.322 -1.7966  0.1489 -2.2958
 5907SOL    HW217900   3.655   2.920   4.467  2.6805  1.6162 -0.1949
 5908SOL     OW17901   3.969   1.324   2.775 -0.1694 -0.5637 -0.4192
 5908SOL    HW117902   4.044   1.377   2.736 -2.0063  2.4208 -0.2528
 5908SOL    HW217903   3.949   1.358   2.867 -0.6938 -2.4102  0.1886
 5909SOL     OW17904   6.513   0.739   3.968  0.1696  0.5932 -0.6616
 5909SOL    HW117905   6.537   0.643   3.956  0.4188  0.6420 -0.5445
 5909SOL    HW217906   6.596   0.793   3.981 -0.0161  0.7157  0.0718
 5910SOL     OW17907   2.011   6.911   8.012 -0.5321 -0.7087  0.0494
 5910SOL    HW117908   2.058   6.997   8.032  1.5502 -1.6069 -0.7477
 5910SOL    HW217909   1.948   6.925   7.936  1.3366 -0.3283 -1.4830
 5911SOL     OW17910   3.605   3.346   5.340  0.2491  0.0050  0.5027
 5911SOL    HW117911   3.675   3.409   5.374  1.4697  0.2354 -2.1512
 5911SOL    HW217912   3.637   3.303   5.256 -2.6647 -0.1471 -0.6462
 5912SOL     OW17913   6.406   7.583   2.122 -0.1039  0.2432  0.4110
 5912SOL    HW117914   6.379   7.661   2.178  0.7249 -0.3365  1.6750
 5912SOL    HW217915   6.325   7.535   2.088 -0.6189  0.7180  0.9596
 5913SOL     OW17916   4.476   2.100   4.461 -0.2920  0.1825 -0.1201
 5913SOL    HW117917   4.433   2.180   4.505 -0.7068  0.0512 -0.2803
 5913SOL    HW217918   4.574   2.116   4.453  0.1473 -0.5950  2.6398
 5914SOL     OW17919   2.605   7.552   3.314  0.5344  0.5393 -0.1920
 5914SOL    HW117920   2.591   7.527   3.218  1.2907  1.0207 -0.4334
 5914SOL    HW217921   2.638   7.473   3.365  0.4692  0.3772 -0.3991
 5915SOL     OW17922   0.360   0.616   4.231 -0.9056 -0.2552  0.0678
 5915SOL    HW117923   0.447   0.666   4.228 -0.4416 -1.0832 -0.4569
 5915SOL    HW217924   0.288   0.671   4.188 -1.1117  1.2821  2.1684
 5916SOL     OW17925   5.792   8.329   1.813  0.0394  0.2362  0.0447
 5916SOL    HW117926   5.860   8.275   1.862 -0.9450  0.1633  1.3884
 5916SOL    HW217927   5.816   8.332   1.716  2.5774  1.1520  0.5997
 5917SOL     OW17928   6.635   4.855   5.620  0.1139  0.0033 -0.2129
 5917SOL    HW117929   6.616   4.760   5.642  1.3884  0.0591  1.2704
 5917SOL    HW217930   6.734   4.870   5.618 -0.0558  1.6828  1.4467
 5918SOL     OW17931   6.206   3.485   4.443 -0.4896 -0.3468  0.6483
 5918SOL    HW117932   6.177   3.407   4.388  0.0321 -1.2589  1.6298
 5918SOL    HW217933   6.261   3.547   4.387  0.6685 -1.6332  0.3150
 5919SOL     OW17934   8.110   8.151   2.576 -0.0035 -0.0948 -0.0943
 5919SOL    HW117935   8.062   8.155   2.664  2.4778  1.5898  1.3010
 5919SOL    HW217936   8.065   8.084   2.517 -2.7226 -0.1381  1.8292
 5920SOL     OW17937   2.489   3.625   1.360 -0.0201 -0.2715  0.6536
 5920SOL    HW117938   2.527   3.540   1.396 -0.5674 -0.4723  0.7710
 5920SOL    HW217939   2.398   3.608   1.321 -0.8429  0.5203  2.1120
 5921SOL     OW17940   0.261   7.393   5.465 -0.1821 -0.2771 -0.4556
 5921SOL    HW117941   0.171   7.403   5.423 -0.5772 -1.5089  0.0431
 5921SOL    HW217942   0.279   7.470   5.526 -1.7591 -0.9398  0.9428
 5922SOL     OW17943   2.299   0.192   0.158  0.3365  0.7535  0.4899
 5922SOL    HW117944   2.365   0.124   0.190  0.0984  0.8351  1.1752
 5922SOL    HW217945   2.346   0.278   0.138  0.3308  1.0887  1.8294
 5923SOL     OW17946   7.596   2.135   3.626  0.1849  0.1074  0.4660
 5923SOL    HW117947   7.585   2.053   3.682  2.5283 -0.5952  0.0042
 5923SOL    HW217948   7.559   2.119   3.535  0.7564 -0.5093  0.3361
 5924SOL     OW17949   8.512   7.420   6.479  0.3779 -0.0894  0.0717
 5924SOL    HW117950   8.529   7.368   6.395 -0.1657  0.0812 -0.1461
 5924SOL    HW217951   8.509   7.358   6.557 -0.7969 -0.4655 -0.2539
 5925SOL     OW17952   5.041   4.753   4.955 -0.3944  0.3697 -0.2459
 5925SOL    HW117953   5.031   4.837   5.008 -0.4964  0.0265  0.2880
 5925SOL    HW217954   4.999   4.677   5.005  0.3962 -0.1419 -0.3426
 5926SOL     OW17955   5.778   1.425   5.051  0.2973 -0.2089 -1.0652
 5926SOL    HW117956   5.728   1.347   5.089  0.4877 -0.3804 -1.1647
 5926SOL    HW217957   5.726   1.509   5.067  0.8477 -0.1387  0.4818
 5927SOL     OW17958   1.058   3.794   4.733 -0.8615 -0.0840  0.2453
 5927SOL    HW117959   0.998   3.740   4.793  0.2896  1.2710  2.7341
 5927SOL    HW217960   1.130   3.735   4.697  0.4053 -0.3580  2.9500
 5928SOL     OW17961   4.996   4.032   3.284  0.1711 -0.1363 -0.0358
 5928SOL    HW117962   4.999   4.026   3.184  1.4659 -2.0321  0.0644
 5928SOL    HW217963   5.080   4.075   3.317  1.2728 -2.4278  0.3312
 5929SOL     OW17964   7.457   2.077   2.545 -0.4273  1.2041 -0.2972
 5929SOL    HW117965   7.424   2.092   2.638  0.7658  0.9594  0.1831
 5929SOL    HW217966   7.536   2.134   2.528  0.9589 -0.6075 -0.2404
 5930SOL     OW17967   7.922   4.461   7.963 -0.4625 -0.6493  0.7727
 5930SOL    HW117968   7.924   4.412   8.050  1.0743 -0.6025  0.7924
 5930SOL    HW217969   8.006   4.442   7.912 -0.2103  1.2682  0.3858
 5931SOL     OW17970   6.131   2.553   2.904 -0.2241  0.7541 -0.1044
 5931SOL    HW117971   6.221   2.530   2.866  0.4344  0.0627  1.7865
 5931SOL    HW217972   6.074   2.471   2.906 -0.1394  0.7071  0.6574
 5932SOL     OW17973   0.550   1.766   4.853 -0.1355 -0.1619 -0.0620
 5932SOL    HW117974   0.631   1.805   4.809  0.1288 -2.2428 -1.5802
 5932SOL    HW217975   0.468   1.816   4.822  0.4139  1.0585  0.3862
 5933SOL     OW17976   3.953   7.058   1.753 -0.4318  0.1932 -0.2109
 5933SOL    HW117977   4.029   7.058   1.819  0.0815 -2.6162 -0.6604
 5933SOL    HW217978   3.878   7.114   1.789 -0.2483 -1.3047  2.8870
 5934SOL     OW17979   6.991   3.933   2.498 -0.2814 -0.2964  0.3944
 5934SOL    HW117980   7.088   3.929   2.472 -0.9613 -0.4402 -2.4547
 5934SOL    HW217981   6.971   4.021   2.540  0.8404  0.2174 -0.1037
 5935SOL     OW17982   4.861   4.434   3.725  0.1646  0.5972 -0.3607
 5935SOL    HW117983   4.833   4.529   3.715 -1.1366  0.0863 -1.9673
 5935SOL    HW217984   4.923   4.410   3.650 -1.1832 -0.3728 -1.2004
 5936SOL     OW17985   5.806   4.807   0.867  0.1139  0.5607 -0.2182
 5936SOL    HW117986   5.708   4.819   0.877 -0.3584 -0.8630 -2.4952
 5936SOL    HW217987   5.842   4.759   0.947 -1.2202  0.1015  0.1249
 5937SOL     OW17988   2.283   0.813   3.159  0.2393  0.1997 -0.2019
 5937SOL    HW117989   2.261   0.730   3.107  2.1223 -1.0950  0.9386
 5937SOL    HW217990   2.320   0.787   3.248  0.3919  2.2964  0.3889
 5938SOL     OW17991   6.974   2.011   3.562  0.9683  0.8531  0.2981
 5938SOL    HW117992   7.052   1.950   3.550  0.7289  0.6735 -0.4112
 5938SOL    HW217993   6.902   1.964   3.613  1.2537  0.9607  0.8048
 5939SOL     OW17994   0.331   8.664   8.659 -0.3330 -0.5036  0.2660
 5939SOL    HW117995   0.311   8.674   8.562 -2.8029  0.0611  0.7580
 5939SOL    HW217996   0.349   8.568   8.681  0.5617 -0.5894 -0.7660
 5940SOL     OW17997   3.163   3.820   5.691 -0.2594  0.1934 -0.4640
 5940SOL    HW117998   3.144   3.827   5.789 -0.7264  2.7838 -0.6694
 5940SOL    HW217999   3.262   3.815   5.676 -0.2155 -1.5129  0.1324
 5941SOL     OW18000   0.598   0.148   3.011 -0.6714 -0.0307  0.1499
 5941SOL    HW118001   0.689   0.181   3.034 -1.1307  0.3929  1.4827
 5941SOL    HW218002   0.593   0.050   3.028 -0.4148 -0.0882 -0.1007
 5942SOL     OW18003   6.464   2.735   1.651  0.3458 -0.6014 -0.0245
 5942SOL    HW118004   6.454   2.829   1.620 -1.0812 -1.0471 -1.0591
 5942SOL    HW218005   6.455   2.731   1.751  0.0452  0.3130 -0.0089
 5943SOL     OW18006   5.169   5.262   1.671  0.6091 -0.4968  0.1608
 5943SOL    HW118007   5.069   5.259   1.676  0.6159  0.1266  0.7249
 5943SOL    HW218008   5.206   5.175   1.703  0.2246 -1.0697 -0.9007
 5944SOL     OW18009   0.993   3.991   7.198  0.4847  0.0612  0.1713
 5944SOL    HW118010   0.955   4.071   7.244  1.0142  0.6312 -0.3554
 5944SOL    HW218011   1.092   3.991   7.208  0.4531 -0.7907  0.5597
 5945SOL     OW18012   0.476   6.301   4.575 -0.9056  0.0613 -0.2640
 5945SOL    HW118013   0.387   6.278   4.535 -0.4370 -0.5058 -0.9909
 5945SOL    HW218014   0.500   6.395   4.550 -2.8961  1.5834  2.8409
 5946SOL     OW18015   8.440   2.063   7.297  0.1149 -0.0133  0.3563
 5946SOL    HW118016   8.487   1.978   7.274 -0.0918  0.1924 -0.8836
 5946SOL    HW218017   8.418   2.113   7.214  0.5177  1.4214  1.0690
 5947SOL     OW18018   0.048   7.195   3.660  0.3237  0.0348  0.2409
 5947SOL    HW118019  -0.022   7.174   3.728 -0.9959  1.6489 -0.5566
 5947SOL    HW218020   0.011   7.180   3.568  1.8664 -1.4870 -0.1955
 5948SOL     OW18021   1.916   2.663   5.422  0.1397  0.4243  0.1320
 5948SOL    HW118022   1.932   2.738   5.357  0.1474  0.3338  0.0287
 5948SOL    HW218023   1.943   2.693   5.513  1.6641  0.0298 -0.1518
 5949SOL     OW18024   8.426   0.525   5.335 -0.0077  0.4750  0.0965
 5949SOL    HW118025   8.385   0.575   5.411 -0.4102  0.6647 -0.2441
 5949SOL    HW218026   8.521   0.555   5.323 -0.3813  1.4963 -0.4016
 5950SOL     OW18027   3.031   6.014   1.707 -0.5120 -0.0748 -0.0308
 5950SOL    HW118028   3.001   6.046   1.797 -1.3879 -0.6696 -0.0921
 5950SOL    HW218029   2.965   6.044   1.638 -1.1204 -1.6067 -0.1434
 5951SOL     OW18030   6.708   1.489   1.036  0.3846 -0.1060  0.3213
 5951SOL    HW118031   6.627   1.546   1.028  0.8788  0.5507 -0.1436
 5951SOL    HW218032   6.681   1.394   1.051 -0.4714  0.0313 -0.2896
 5952SOL     OW18033   8.553   0.218   8.210 -1.1018  0.0555  0.0917
 5952SOL    HW118034   8.573   0.288   8.141 -0.4990  0.3664  0.5711
 5952SOL    HW218035   8.519   0.262   8.293 -1.0518 -0.2466  0.2740
 5953SOL     OW18036   6.080   0.843   2.457 -0.0552 -0.2486  0.2209
 5953SOL    HW118037   6.042   0.822   2.547 -1.1887  0.1144 -0.1640
 5953SOL    HW218038   6.055   0.936   2.430  1.3196  0.1018  0.0472
 5954SOL     OW18039   1.300   8.812   4.482 -0.1985  0.1991  0.5653
 5954SOL    HW118040   1.369   8.742   4.463 -2.3138 -1.5730 -1.0503
 5954SOL    HW218041   1.301   8.835   4.579  0.9243 -1.6889  1.0447
 5955SOL     OW18042   0.120   1.611   3.652 -0.2418 -0.2179  0.5855
 5955SOL    HW118043   0.077   1.700   3.659 -1.3473 -0.6188 -0.6502
 5955SOL    HW218044   0.214   1.621   3.619 -1.4917  0.3865 -3.3535
 5956SOL     OW18045   3.658   5.057   1.765  0.5091 -0.1555  0.0647
 5956SOL    HW118046   3.695   5.016   1.849  2.2878 -1.4630 -1.2665
 5956SOL    HW218047   3.719   5.130   1.735 -0.1404  0.3281 -0.0895
 5957SOL     OW18048   3.466   4.591   3.703  0.4413 -0.1640  0.4806
 5957SOL    HW118049   3.553   4.637   3.687  0.1288  0.2454 -0.0590
 5957SOL    HW218050   3.400   4.657   3.738 -0.0602 -0.1507 -0.4673
 5958SOL     OW18051   3.925   4.431   5.277  0.0921  0.1786  0.1588
 5958SOL    HW118052   3.904   4.378   5.194 -0.6326  0.6597  0.0287
 5958SOL    HW218053   4.023   4.447   5.282  0.3850 -1.5263  0.4045
 5959SOL     OW18054   1.755   1.297   3.830 -0.4606 -0.1721  0.6134
 5959SOL    HW118055   1.724   1.391   3.841 -0.2549 -0.1252  0.8097
 5959SOL    HW218056   1.790   1.263   3.918  0.3581 -0.1044  0.3291
 5960SOL     OW18057   8.101   1.668   6.858  0.5172  0.0029  0.0939
 5960SOL    HW118058   8.162   1.744   6.883 -0.4841  0.9053 -0.0957
 5960SOL    HW218059   8.151   1.601   6.805  1.6385  0.1208  0.9627
 5961SOL     OW18060   2.376   7.142   0.820 -0.0442 -0.0251  0.3441
 5961SOL    HW118061   2.333   7.056   0.849 -1.0776  0.3165 -0.1732
 5961SOL    HW218062   2.365   7.210   0.892 -0.3732  0.0653  0.2077
 5962SOL     OW18063   4.526   8.009   6.199  0.0514  0.5415 -0.6761
 5962SOL    HW118064   4.546   8.025   6.103  1.3663  0.7977 -0.3916
 5962SOL    HW218065   4.612   8.006   6.251 -0.6909  2.9983  0.8841
 5963SOL     OW18066   5.436   3.973   3.234  0.3478 -0.1673  0.0713
 5963SOL    HW118067   5.461   4.004   3.143  2.5427  0.1297  0.7015
 5963SOL    HW218068   5.510   3.994   3.298  0.4794 -3.5408  1.2412
 5964SOL     OW18069   0.471   6.848   6.233  0.0805 -0.5797 -0.0803
 5964SOL    HW118070   0.564   6.886   6.226  0.3933 -1.1395  0.8175
 5964SOL    HW218071   0.405   6.917   6.205  0.7207  0.1318  0.1044
 5965SOL     OW18072   2.186   6.607   1.840  0.0704  0.1215 -0.0984
 5965SOL    HW118073   2.199   6.587   1.937 -1.3633  1.1661  0.3462
 5965SOL    HW218074   2.275   6.612   1.795  0.9231  1.7284  1.6140
 5966SOL     OW18075   7.613   5.187   7.112 -0.7845 -0.0776  0.3797
 5966SOL    HW118076   7.555   5.190   7.030 -0.1870  0.6594 -0.0323
 5966SOL    HW218077   7.649   5.095   7.124 -0.7361 -0.1505 -0.2981
 5967SOL     OW18078   8.626   1.478   2.746  0.3772 -0.9492  0.0864
 5967SOL    HW118079   8.719   1.510   2.727  0.5350 -0.6651  1.2409
 5967SOL    HW218080   8.611   1.390   2.701  1.0057 -0.7196 -0.5840
 5968SOL     OW18081   5.756   6.594   7.578  0.5018 -0.2663  0.5091
 5968SOL    HW118082   5.725   6.587   7.483 -0.7611  0.5321  0.8282
 5968SOL    HW218083   5.805   6.511   7.604  0.9698 -0.4508 -0.8621
 5969SOL     OW18084   6.593   6.080   5.817 -0.2680  0.1609  0.5592
 5969SOL    HW118085   6.622   6.050   5.908 -2.8120 -1.7874  0.8722
 5969SOL    HW218086   6.570   5.999   5.762  0.5626  1.3291 -1.6292
 5970SOL     OW18087   0.927   3.551   0.239 -0.6419  0.3982  0.3623
 5970SOL    HW118088   0.962   3.566   0.332  0.4766 -3.1513  0.6583
 5970SOL    HW218089   0.858   3.479   0.240  0.3552 -0.6844 -1.6778
 5971SOL     OW18090   4.359   1.385   3.226  0.1404 -0.0493  0.3206
 5971SOL    HW118091   4.451   1.351   3.210  1.2084  1.0181  3.5276
 5971SOL    HW218092   4.320   1.416   3.139  2.5405 -1.0396 -1.2194
 5972SOL     OW18093   6.635   0.052   4.230 -0.1561 -0.5139  0.0702
 5972SOL    HW118094   6.539   0.067   4.255 -0.0583  2.8880 -1.1484
 5972SOL    HW218095   6.640  -0.019   4.160 -1.7980 -0.6737  0.0653
 5973SOL     OW18096   6.215   8.140   6.041  0.1421 -0.7836  0.5059
 5973SOL    HW118097   6.255   8.128   5.951  0.3790 -1.1234  0.6545
 5973SOL    HW218098   6.115   8.142   6.034  0.1813  1.1626 -0.0035
 5974SOL     OW18099   3.927   2.706   1.058 -0.6604 -0.0676  0.0359
 5974SOL    HW118100   3.911   2.791   1.007 -0.7805 -0.8446 -1.2819
 5974SOL    HW218101   3.885   2.712   1.148 -1.8374  0.7618 -0.5528
 5975SOL     OW18102   0.863   4.717   8.361 -0.4754 -0.1883  0.2374
 5975SOL    HW118103   0.909   4.640   8.317  1.3706  0.8419  0.2518
 5975SOL    HW218104   0.816   4.771   8.291  2.8936  1.7495 -0.7569
 5976SOL     OW18105   7.909   6.764   4.267  0.5112  0.2047 -1.2496
 5976SOL    HW118106   7.873   6.680   4.228 -1.3766  0.8419 -0.9983
 5976SOL    HW218107   7.857   6.787   4.350  2.3637  0.5329 -0.1224
 5977SOL     OW18108   3.797   5.864   6.779 -0.0108  0.7221 -0.1153
 5977SOL    HW118109   3.877   5.890   6.725 -0.2085 -1.4250 -1.5790
 5977SOL    HW218110   3.719   5.851   6.719 -0.8383  0.4249  0.9884
 5978SOL     OW18111   5.254   1.097   4.515 -0.3025 -0.4373 -0.2448
 5978SOL    HW118112   5.185   1.025   4.519  0.2316 -1.0005 -0.9592
 5978SOL    HW218113   5.294   1.101   4.424 -0.7072  1.1527 -0.3889
 5979SOL     OW18114   1.490   4.331   0.548  0.3438 -0.2127 -0.3504
 5979SOL    HW118115   1.463   4.375   0.634 -0.1871 -1.0560 -0.0750
 5979SOL    HW218116   1.589   4.318   0.547  0.3586 -0.1446  0.1109
 5980SOL     OW18117   0.260   5.915   0.241  0.0255  0.4770  0.0354
 5980SOL    HW118118   0.274   6.004   0.286  0.0015  0.8976 -0.7687
 5980SOL    HW218119   0.342   5.892   0.188 -0.1148  0.1920 -0.0561
 5981SOL     OW18120   5.896   2.158   8.113 -0.3736  0.3824 -0.2085
 5981SOL    HW118121   5.821   2.092   8.123  1.1306 -1.3748 -0.0163
 5981SOL    HW218122   5.914   2.174   8.016  0.2762 -0.7229 -0.2783
 5982SOL     OW18123   5.587   6.999   8.233  0.3057 -0.5505  0.1790
 5982SOL    HW118124   5.593   7.077   8.296  0.2423 -0.7329  0.4154
 5982SOL    HW218125   5.673   6.948   8.235 -0.1843 -1.3839  1.2181
 5983SOL     OW18126   2.708   5.264   8.492 -0.0249 -0.1586  0.6149
 5983SOL    HW118127   2.793   5.285   8.539 -1.0987  2.1410  1.6882
 5983SOL    HW218128   2.632   5.264   8.557 -1.1644  0.1666 -0.6659
 5984SOL     OW18129   2.461   5.479   0.585 -0.0738  0.0410 -0.1028
 5984SOL    HW118130   2.387   5.435   0.636 -0.3106 -1.8956 -1.9980
 5984SOL    HW218131   2.549   5.446   0.618  0.0899  2.3564  2.1635
 5985SOL     OW18132   5.679   6.436   1.590  0.2448  0.0578 -0.1082
 5985SOL    HW118133   5.707   6.354   1.640 -2.5954 -1.5057 -0.8656
 5985SOL    HW218134   5.715   6.432   1.496 -0.8693 -0.9995 -0.5168
 5986SOL     OW18135   4.249   7.287   2.595  0.1063  0.1082  0.3878
 5986SOL    HW118136   4.151   7.303   2.606 -0.0488 -0.6191  0.1054
 5986SOL    HW218137   4.265   7.190   2.577  0.5426  0.6828 -3.1403
 5987SOL     OW18138   6.443   3.437   6.976  0.4834 -0.0625 -0.0736
 5987SOL    HW118139   6.526   3.419   6.922 -0.0505 -2.7145 -0.1439
 5987SOL    HW218140   6.426   3.360   7.037 -1.5448  0.7562  0.4675
 5988SOL     OW18141   1.766   8.482   8.243 -0.6240  0.5124  0.1910
 5988SOL    HW118142   1.667   8.468   8.251 -0.3721 -1.1263  0.9093
 5988SOL    HW218143   1.793   8.475   8.147 -1.1844  0.7995  0.0112
 5989SOL     OW18144   5.899   0.576   2.827 -0.0525  0.6714 -0.2220
 5989SOL    HW118145   5.875   0.534   2.739 -0.6779  0.9979 -0.2142
 5989SOL    HW218146   5.824   0.561   2.892  0.7464 -0.2593  0.4991
 5990SOL     OW18147   3.430   7.828   8.849 -0.4448  0.4272  0.2209
 5990SOL    HW118148   3.517   7.839   8.896 -0.4973  2.2579 -0.0140
 5990SOL    HW218149   3.387   7.742   8.876  1.4867 -0.5737  0.2263
 5991SOL     OW18150   5.885   5.964   6.510  0.3544  0.0637 -0.4186
 5991SOL    HW118151   5.898   6.046   6.566 -1.8427  0.0805  0.1772
 5991SOL    HW218152   5.910   5.883   6.563  2.6899  0.2953 -1.0652
 5992SOL     OW18153   6.660   8.683   2.319 -0.1947 -0.1436  0.3359
 5992SOL    HW118154   6.596   8.725   2.383 -1.5051 -1.3442 -0.1607
 5992SOL    HW218155   6.624   8.689   2.226  0.5149 -0.6435  0.0185
 5993SOL     OW18156   3.940   7.272   6.501  0.3021  0.8534 -0.4673
 5993SOL    HW118157   3.952   7.216   6.419  0.6023  0.4857 -0.1749
 5993SOL    HW218158   3.843   7.295   6.511  0.2997  1.1451 -1.0808
 5994SOL     OW18159   1.927   2.776   1.564  0.4783 -0.3741  0.2088
 5994SOL    HW118160   2.019   2.815   1.555  1.8610 -2.7594  2.3130
 5994SOL    HW218161   1.910   2.715   1.486 -0.5659  2.0943 -1.6301
 5995SOL     OW18162   1.051   8.544   7.613 -0.4873  0.2702 -0.5245
 5995SOL    HW118163   1.118   8.524   7.684  0.7483 -0.2815 -1.7999
 5995SOL    HW218164   1.097   8.583   7.533 -1.7008 -0.0086 -1.3939
 5996SOL     OW18165   5.692   2.652   5.830 -0.0782  0.0697 -0.6389
 5996SOL    HW118166   5.788   2.664   5.858 -0.5192 -0.0931  1.0223
 5996SOL    HW218167   5.633   2.660   5.910 -1.5564  1.1535 -1.7796
 5997SOL     OW18168   0.506   5.230   5.275 -0.3201  0.2735 -0.2587
 5997SOL    HW118169   0.480   5.326   5.284  1.8368  0.9250 -0.4552
 5997SOL    HW218170   0.604   5.224   5.258 -0.1249 -2.0434  1.2746
 5998SOL     OW18171   6.155   7.850   5.981 -0.4752  0.0009  0.2537
 5998SOL    HW118172   6.134   7.934   6.032  0.6521  0.5817 -0.2136
 5998SOL    HW218173   6.190   7.781   6.044  0.2545  0.4827  0.3893
 5999SOL     OW18174   1.197   5.790   1.459  0.5237  0.1467  0.2869
 5999SOL    HW118175   1.263   5.785   1.533  1.3924  0.7563 -0.4189
 5999SOL    HW218176   1.244   5.818   1.374 -0.2795 -1.3546 -0.6966
 6000SOL     OW18177   0.218   4.739   6.294 -0.7978 -0.7349 -0.1613
 6000SOL    HW118178   0.294   4.780   6.344 -0.6553 -0.0881 -0.8902
 6000SOL    HW218179   0.241   4.644   6.271 -0.8801 -1.0499  1.0036
 6001SOL     OW18180   1.201   2.132   4.806  0.1654  0.3783  0.0779
 6001SOL    HW118181   1.160   2.155   4.895  0.8585  0.7730  0.2985
 6001SOL    HW218182   1.203   2.213   4.748 -0.2732  0.1231 -0.3043
 6002SOL     OW18183   1.767   7.037   7.723 -0.0443 -0.7086 -0.1062
 6002SOL    HW118184   1.710   7.068   7.647 -1.6540  1.7052  1.9351
 6002SOL    HW218185   1.833   7.108   7.747 -0.6343 -0.7011  1.7044
 6003SOL     OW18186   5.791   1.201   8.132 -0.3885  0.1727 -0.1436
 6003SOL    HW118187   5.887   1.197   8.104  0.1062  1.8356  1.1939
 6003SOL    HW218188   5.737   1.141   8.073  1.3799 -0.3787 -1.2722
 6004SOL     OW18189   6.185   3.921   8.504  1.0222 -0.0817 -0.4976
 6004SOL    HW118190   6.176   3.910   8.603 -1.9555 -2.6160 -0.8818
 6004SOL    HW218191   6.103   3.966   8.467  0.9439 -1.3519 -2.0086
 6005SOL     OW18192   6.320   4.642   2.935  0.1928 -0.0992 -0.1828
 6005SOL    HW118193   6.365   4.656   3.023  0.6458  5.3013 -0.9755
 6005SOL    HW218194   6.377   4.582   2.878  1.6452 -0.8362  1.9043
 6006SOL     OW18195   6.202   7.059   6.351  0.6043 -0.0888  0.5034
 6006SOL    HW118196   6.255   7.030   6.431 -1.1264 -0.6083  1.5250
 6006SOL    HW218197   6.109   7.024   6.360 -0.1317  1.4548 -0.8344
 6007SOL     OW18198   2.433   3.054   7.829 -0.1629 -0.2176 -0.0852
 6007SOL    HW118199   2.473   3.015   7.911 -1.2420 -2.5666 -0.5903
 6007SOL    HW218200   2.494   3.124   7.792  1.6356 -1.0147  1.2234
 6008SOL     OW18201   1.624   2.964   3.999  0.0026 -0.1886  0.1522
 6008SOL    HW118202   1.645   2.883   3.944 -1.3637 -0.8049  0.4754
 6008SOL    HW218203   1.609   2.936   4.094  1.2209  0.7057  0.6354
 6009SOL     OW18204   0.826   0.632   2.150  0.0104  0.6907  0.5862
 6009SOL    HW118205   0.895   0.691   2.194  0.5894  2.0959 -2.0151
 6009SOL    HW218206   0.763   0.689   2.098 -2.1631 -0.7310  1.5242
 6010SOL     OW18207   2.183   8.507   4.960 -0.4484 -0.3578  0.2706
 6010SOL    HW118208   2.241   8.568   4.906  1.1356 -1.0549  1.1070
 6010SOL    HW218209   2.157   8.428   4.905 -0.0069 -0.3768  0.0829
 6011SOL     OW18210   2.951   0.416   4.477 -0.3952  0.5154  0.9475
 6011SOL    HW118211   2.892   0.480   4.428 -0.5471 -0.3337 -0.0277
 6011SOL    HW218212   2.910   0.324   4.475  1.6782 -0.4872 -1.2492
 6012SOL     OW18213   5.389   6.267   6.178 -0.2810 -0.1054  0.0308
 6012SOL    HW118214   5.384   6.172   6.146  0.0552  0.1922 -0.9352
 6012SOL    HW218215   5.296   6.303   6.188 -0.3957 -0.1970 -0.6544
 6013SOL     OW18216   1.441   8.854   1.309  0.1617  0.4999 -0.3176
 6013SOL    HW118217   1.411   8.817   1.220 -2.1168  1.0666  0.1506
 6013SOL    HW218218   1.498   8.786   1.355  0.2401 -0.3701 -1.6163
 6014SOL     OW18219   1.735   1.091   4.371  0.4536 -0.6476  0.1293
 6014SOL    HW118220   1.801   1.048   4.434 -0.9834 -1.0922  1.4136
 6014SOL    HW218221   1.643   1.063   4.397 -0.2048 -0.8492 -2.2428
 6015SOL     OW18222   3.620   1.753   8.598 -0.3645 -0.2069  0.3776
 6015SOL    HW118223   3.598   1.742   8.695 -0.1391 -1.0263  0.3374
 6015SOL    HW218224   3.581   1.839   8.565 -3.5618 -1.5349  0.3233
 6016SOL     OW18225   6.842   7.822   8.693  0.2942  0.0948  0.1456
 6016SOL    HW118226   6.895   7.755   8.641  1.4884  1.0565  0.0811
 6016SOL    HW218227   6.889   7.842   8.779 -0.0927  0.7788  0.2051
 6017SOL     OW18228   7.160   4.138   3.962 -0.3406  0.0283 -0.7366
 6017SOL    HW118229   7.066   4.114   3.984 -0.7554  1.1045 -1.2632
 6017SOL    HW218230   7.177   4.122   3.864 -0.4752  1.2939 -0.9904
 6018SOL     OW18231   3.939   0.219   2.801  0.2373 -0.3380  0.3285
 6018SOL    HW118232   3.860   0.272   2.833  0.7719  0.4653  0.3335
 6018SOL    HW218233   4.021   0.276   2.804  0.0772  0.4431 -4.1592
 6019SOL     OW18234   5.695   2.753   7.440 -0.0464  0.6190  0.3624
 6019SOL    HW118235   5.785   2.796   7.447 -0.4217  1.7714 -1.3215
 6019SOL    HW218236   5.692   2.671   7.498  1.3769  1.7147  2.0717
 6020SOL     OW18237   2.950   8.684   1.056  0.3362  0.3268 -0.5541
 6020SOL    HW118238   2.925   8.589   1.073  0.9066 -0.2267 -2.5247
 6020SOL    HW218239   2.950   8.735   1.142 -2.5658 -0.7964  0.2228
 6021SOL     OW18240   2.900   2.438   7.645  0.3178  0.5260  0.0837
 6021SOL    HW118241   2.850   2.519   7.675 -0.2383  1.1082 -2.2372
 6021SOL    HW218242   2.949   2.458   7.560 -0.9912 -1.9283 -1.3491
 6022SOL     OW18243   6.640   1.786   3.105  0.1158 -0.3068 -0.0440
 6022SOL    HW118244   6.567   1.812   3.168 -1.5507 -1.1035 -1.5665
 6022SOL    HW218245   6.710   1.858   3.103 -1.3300  1.1648  0.4064
 6023SOL     OW18246   1.801   8.295   4.224 -0.6203  0.0412  0.3684
 6023SOL    HW118247   1.756   8.377   4.190 -1.2735  0.4685  2.1881
 6023SOL    HW218248   1.760   8.268   4.311 -1.0725 -2.7772 -0.6147
 6024SOL     OW18249   1.759   0.469   7.312 -0.0609 -0.3999  0.3091
 6024SOL    HW118250   1.718   0.413   7.384 -0.8027  0.5247  0.6220
 6024SOL    HW218251   1.760   0.565   7.341 -1.7661  0.2217 -1.5203
 6025SOL     OW18252   8.576   0.183   4.031  0.0616 -0.0662  0.5576
 6025SOL    HW118253   8.579   0.176   3.932 -0.1309  1.4549  0.4286
 6025SOL    HW218254   8.666   0.213   4.065 -0.1621  0.3927  0.7494
 6026SOL     OW18255   7.227   3.009   6.368 -0.1875 -0.0854 -0.5051
 6026SOL    HW118256   7.226   2.925   6.422 -0.3530  0.1101 -0.2011
 6026SOL    HW218257   7.268   2.991   6.279  1.9508  0.0017  0.3816
 6027SOL     OW18258   3.849   0.158   8.568  0.9302  0.5043  0.3148
 6027SOL    HW118259   3.779   0.141   8.499  0.2247 -0.3961  1.2149
 6027SOL    HW218260   3.872   0.256   8.570  0.8543  0.5604 -1.0613
 6028SOL     OW18261   4.695   2.278   8.000 -0.2598  0.4394  0.2773
 6028SOL    HW118262   4.711   2.240   8.091  0.7067  0.0243 -0.0570
 6028SOL    HW218263   4.705   2.207   7.931  0.1052  0.9784 -0.2423
 6029SOL     OW18264   2.596   4.067   2.224 -0.9987 -0.0546  0.3183
 6029SOL    HW118265   2.642   3.987   2.261  1.6527  1.4151  0.4428
 6029SOL    HW218266   2.641   4.097   2.140 -1.2594  1.8634  0.8105
 6030SOL     OW18267   0.346   4.250   3.823 -0.3914  0.1445  0.8921
 6030SOL    HW118268   0.379   4.273   3.731  2.5586  1.0523  2.0366
 6030SOL    HW218269   0.310   4.157   3.824  0.1461 -0.1286 -1.0485
 6031SOL     OW18270   4.439   2.101   6.448 -0.0409  0.1447  0.1598
 6031SOL    HW118271   4.517   2.137   6.397 -0.5241 -0.2643 -0.9026
 6031SOL    HW218272   4.414   2.011   6.411  0.6647 -0.9903  2.2510
 6032SOL     OW18273   3.310   6.404   0.947  0.1888 -0.2851  0.8118
 6032SOL    HW118274   3.243   6.353   1.001 -1.3715 -0.8033 -1.5264
 6032SOL    HW218275   3.302   6.380   0.851  1.9482  1.6704  0.0982
 6033SOL     OW18276   5.386   5.751   0.076  0.4482  0.2914  0.0422
 6033SOL    HW118277   5.389   5.784  -0.018  0.1246 -0.2215 -0.1529
 6033SOL    HW218278   5.394   5.828   0.139 -0.1812  0.7266 -0.4024
 6034SOL     OW18279   5.620   7.026   8.669  1.0223  0.2667  0.1121
 6034SOL    HW118280   5.685   7.040   8.594 -0.4763  1.1678 -1.0879
 6034SOL    HW218281   5.562   7.107   8.677 -1.7770 -1.5509 -0.7095
 6035SOL     OW18282   1.255   4.549   4.812 -0.8887 -0.0231 -0.4210
 6035SOL    HW118283   1.228   4.500   4.896  1.3578  0.3060  0.5815
 6035SOL    HW218284   1.355   4.557   4.810 -1.0424  2.2680 -1.8529
 6036SOL     OW18285   1.379   4.431   0.826  0.3722  0.0885 -0.4876
 6036SOL    HW118286   1.342   4.365   0.890  0.9280  1.0868  0.9014
 6036SOL    HW218287   1.346   4.523   0.849  1.6656  0.6490 -0.7885
 6037SOL     OW18288   6.671   1.062   2.065  0.0857  0.6161 -0.5367
 6037SOL    HW118289   6.636   1.077   2.157  0.0148  0.2640 -0.5064
 6037SOL    HW218290   6.677   0.964   2.046  0.3962  0.6814 -0.7943
 6038SOL     OW18291   3.790   3.477   3.976  0.3733  0.1797  0.2124
 6038SOL    HW118292   3.829   3.402   4.029  0.4193  2.6467  4.1182
 6038SOL    HW218293   3.838   3.562   3.999 -1.7575  1.9489 -1.4323
 6039SOL     OW18294   7.846   2.192   3.990 -0.2675  0.2316  0.4288
 6039SOL    HW118295   7.751   2.171   4.011 -0.2444 -1.3429 -0.7507
 6039SOL    HW218296   7.900   2.191   4.074 -1.1064 -0.0212  0.9812
 6040SOL     OW18297   8.005   0.874   1.516  0.4798 -0.2637  0.7278
 6040SOL    HW118298   7.983   0.937   1.590  0.1257  0.0114  0.3952
 6040SOL    HW218299   8.009   0.781   1.551 -2.5605 -0.5242  0.6029
 6041SOL     OW18300   2.671   2.028   5.668 -0.4746  0.1562 -0.2929
 6041SOL    HW118301   2.703   2.069   5.582 -0.9351 -0.2001 -0.6406
 6041SOL    HW218302   2.589   2.076   5.699 -0.5398  0.0234 -0.2617
 6042SOL     OW18303   3.604   5.361   2.925  0.5534  0.0390 -0.6612
 6042SOL    HW118304   3.595   5.261   2.922  1.3928 -0.1652  1.7503
 6042SOL    HW218305   3.696   5.386   2.893  0.8170 -0.0791 -0.0047
 6043SOL     OW18306   4.947   5.163   6.827 -0.3681  0.4611 -0.0322
 6043SOL    HW118307   4.968   5.106   6.748  3.1710  1.2542  0.1650
 6043SOL    HW218308   4.987   5.254   6.813  2.8972 -0.1459  3.6423
 6044SOL     OW18309   5.477   2.543   1.090 -0.1421 -0.0170  0.2715
 6044SOL    HW118310   5.556   2.515   1.145 -0.8974 -1.6363  0.5792
 6044SOL    HW218311   5.460   2.641   1.104  1.5045  0.2633  0.5581
 6045SOL     OW18312   0.583   4.705   1.669  1.0228  0.2897 -0.6021
 6045SOL    HW118313   0.645   4.783   1.659  0.2290  0.8745 -1.1270
 6045SOL    HW218314   0.539   4.685   1.581  1.5179 -1.0245 -0.5742
 6046SOL     OW18315   5.477   6.060   5.132 -0.2385 -0.3916 -0.4073
 6046SOL    HW118316   5.544   6.034   5.062 -0.4999  0.5148 -1.0074
 6046SOL    HW218317   5.396   6.098   5.089 -1.0579 -1.2350  0.3290
 6047SOL     OW18318   2.535   5.328   2.787 -0.2253  0.1111 -0.2491
 6047SOL    HW118319   2.507   5.424   2.785  1.4812  0.6364 -0.9551
 6047SOL    HW218320   2.541   5.297   2.882 -1.2132  0.5683 -0.0316
 6048SOL     OW18321   4.309   8.128   5.815  0.0323 -0.6744 -0.2688
 6048SOL    HW118322   4.323   8.053   5.750 -0.6604 -0.9088 -0.1608
 6048SOL    HW218323   4.243   8.099   5.884  0.2189 -0.1720  0.1208
 6049SOL     OW18324   7.542   8.175   3.277 -0.0382  0.4426 -0.6455
 6049SOL    HW118325   7.501   8.206   3.363 -2.1167  0.2375 -1.5095
 6049SOL    HW218326   7.510   8.232   3.202  1.1126  0.1158 -1.4090
 6050SOL     OW18327   4.623   2.276   7.445 -0.1967 -0.3305 -1.2914
 6050SOL    HW118328   4.677   2.200   7.480  1.7974  1.4987 -0.1428
 6050SOL    HW218329   4.526   2.250   7.441  0.1617 -2.2798  0.9021
 6051SOL     OW18330   1.535   4.682   4.650  0.3695  0.0735 -0.0030
 6051SOL    HW118331   1.580   4.683   4.739 -0.7495  1.2557  0.5787
 6051SOL    HW218332   1.516   4.776   4.621  1.2606 -0.2581 -1.7882
 6052SOL     OW18333   1.054   3.539   6.142  0.1121  0.0078  1.0694
 6052SOL    HW118334   1.144   3.553   6.101  0.7711  0.2173  2.4998
 6052SOL    HW218335   0.983   3.564   6.076  1.1171  0.7019  0.2075
 6053SOL     OW18336   2.536   2.561   1.877 -0.5591  0.2829  0.1596
 6053SOL    HW118337   2.609   2.554   1.944  1.3555  0.7987 -1.7502
 6053SOL    HW218338   2.508   2.469   1.848 -1.6028  0.0503  1.7994
 6054SOL     OW18339   6.688   6.683   0.738 -0.4337  0.4094  0.9252
 6054SOL    HW118340   6.638   6.751   0.684 -0.0667  1.2360  1.6024
 6054SOL    HW218341   6.768   6.726   0.779  0.3748 -0.6973  0.5375
 6055SOL     OW18342   6.667   5.434   8.151 -0.2577 -0.1085 -0.0268
 6055SOL    HW118343   6.730   5.446   8.074 -1.2058  0.6221 -0.7147
 6055SOL    HW218344   6.594   5.371   8.125 -1.9124  1.9170 -0.6309
 6056SOL     OW18345   5.302   3.531   8.611 -0.4129  0.0869  0.1751
 6056SOL    HW118346   5.320   3.608   8.550  1.2772  1.4614  2.2827
 6056SOL    HW218347   5.270   3.453   8.557 -1.2824  1.9233 -2.1506
 6057SOL     OW18348   4.787   3.218   4.194 -0.0940 -0.0980  0.4022
 6057SOL    HW118349   4.843   3.166   4.128 -1.3831 -0.5210 -0.4097
 6057SOL    HW218350   4.739   3.154   4.254  0.6182  0.2744  1.3854
 6058SOL     OW18351   1.969   5.347   5.920 -0.7102  0.5645  0.1060
 6058SOL    HW118352   1.972   5.446   5.918 -1.6666  0.6266  0.7623
 6058SOL    HW218353   2.037   5.309   5.857 -1.0244  1.6368 -0.9081
 6059SOL     OW18354   8.456   6.262   4.691 -0.1600 -0.1261 -0.7857
 6059SOL    HW118355   8.410   6.339   4.648  0.7962  1.7833  1.4157
 6059SOL    HW218356   8.553   6.283   4.703 -0.1605 -0.9910  1.2120
 6060SOL     OW18357   3.901   4.607   8.352  0.2496 -0.2303  0.0960
 6060SOL    HW118358   3.900   4.575   8.446 -1.1805  0.9033  0.4932
 6060SOL    HW218359   3.857   4.539   8.293  0.4646 -0.5932  0.3496
 6061SOL     OW18360   6.415   0.007   7.233 -0.1576 -0.4249  0.4273
 6061SOL    HW118361   6.509  -0.023   7.218 -0.8203 -1.4537 -2.0995
 6061SOL    HW218362   6.405   0.101   7.201 -0.3651 -0.8829 -0.8747
 6062SOL     OW18363   8.493   6.032   0.847 -0.0196 -0.0412  0.0061
 6062SOL    HW118364   8.411   6.025   0.903  0.7780  1.0651  1.3925
 6062SOL    HW218365   8.507   6.128   0.821  2.0281  0.1985  1.7478
 6063SOL     OW18366   1.140   7.793   2.210  0.3485 -0.0258  0.0513
 6063SOL    HW118367   1.221   7.738   2.229  0.9681  0.9508  0.2739
 6063SOL    HW218368   1.113   7.843   2.292 -0.5589 -0.4135  0.0130
 6064SOL     OW18369   5.366   3.147   8.196  0.1141 -0.4885 -0.0472
 6064SOL    HW118370   5.420   3.177   8.275  1.2598 -0.5056 -0.8050
 6064SOL    HW218371   5.270   3.139   8.223 -0.0058  2.2811  0.6339
 6065SOL     OW18372   3.382   0.388   2.154  0.4322  0.0834 -0.3295
 6065SOL    HW118373   3.419   0.355   2.067  1.8608 -1.2788  0.7324
 6065SOL    HW218374   3.368   0.487   2.148  1.8020  0.2439 -1.6716
 6066SOL     OW18375   2.770   0.948   2.310  0.7906 -0.0883 -0.3703
 6066SOL    HW118376   2.734   0.859   2.281 -0.1686  0.1512  0.0466
 6066SOL    HW218377   2.741   1.018   2.245 -0.6656  0.3162  0.6608
 6067SOL     OW18378   7.895   3.434   0.137 -0.1056 -0.3061  0.2929
 6067SOL    HW118379   7.857   3.468   0.051 -1.4275 -1.6869  0.2695
 6067SOL    HW218380   7.845   3.473   0.214 -0.6194 -0.9845  0.3176
 6068SOL     OW18381   5.151   8.821   3.778  0.1528 -0.6435 -0.2676
 6068SOL    HW118382   5.141   8.913   3.816  0.0267 -1.1218  0.8805
 6068SOL    HW218383   5.204   8.764   3.841 -1.0227 -1.7814 -0.2761
 6069SOL     OW18384   3.376   8.018   1.518 -0.0936  0.3795  0.2755
 6069SOL    HW118385   3.435   7.977   1.588  0.0592 -1.3224 -0.8193
 6069SOL    HW218386   3.316   8.086   1.562  0.2636 -0.3522  1.9943
 6070SOL     OW18387   1.938   3.365   6.524 -0.1018  0.3593  0.5259
 6070SOL    HW118388   1.861   3.313   6.487 -0.7044  1.0959  0.7447
 6070SOL    HW218389   1.907   3.454   6.556  0.6518  0.2669  1.5760
 6071SOL     OW18390   0.212   6.897   2.801  0.3917  0.2132  0.6503
 6071SOL    HW118391   0.163   6.823   2.757  0.6086  1.2986 -1.5295
 6071SOL    HW218392   0.295   6.862   2.845  0.3917 -0.8433 -0.1807
 6072SOL     OW18393   6.223   7.931   4.008 -0.0846 -0.2833  0.6260
 6072SOL    HW118394   6.162   7.868   4.056  0.1669 -1.0076  0.0155
 6072SOL    HW218395   6.317   7.916   4.039 -0.0755  0.0710  0.7690
 6073SOL     OW18396   7.335   2.471   1.182  0.1936  0.4004 -0.4785
 6073SOL    HW118397   7.304   2.407   1.252 -1.0205  1.5358  0.0515
 6073SOL    HW218398   7.422   2.512   1.211 -0.3649  0.9607  0.4309
 6074SOL     OW18399   2.341   4.986   6.170 -0.0177 -0.0674 -0.1626
 6074SOL    HW118400   2.285   5.066   6.148 -0.6287 -0.0321  1.4150
 6074SOL    HW218401   2.282   4.913   6.204  0.7506 -0.4928  0.2632
 6075SOL     OW18402   6.375   1.886   0.775  0.4946  0.1092  0.1107
 6075SOL    HW118403   6.289   1.847   0.743  1.1938 -0.8970 -0.6255
 6075SOL    HW218404   6.372   1.985   0.768 -0.2195  0.0316 -0.9277
 6076SOL     OW18405   7.497   8.826   4.099  0.6070 -0.1715 -0.1450
 6076SOL    HW118406   7.475   8.731   4.075  0.3928  0.1144 -1.1623
 6076SOL    HW218407   7.415   8.882   4.088  1.2685  0.5279 -1.8518
 6077SOL     OW18408   3.056   6.881   5.386  0.2085 -0.2688  0.1071
 6077SOL    HW118409   3.082   6.907   5.293 -0.1595  0.5213  0.2116
 6077SOL    HW218410   3.115   6.808   5.418  1.1137  0.2556 -0.3232
 6078SOL     OW18411   7.295   7.284   1.842  0.3767 -0.1680 -0.1380
 6078SOL    HW118412   7.316   7.323   1.932 -0.0572  0.0981 -0.1474
 6078SOL    HW218413   7.257   7.356   1.783  1.0736 -0.2370 -0.6813
 6079SOL     OW18414   4.324   3.728   5.680 -0.4477 -0.1093  0.0036
 6079SOL    HW118415   4.412   3.722   5.633  0.0980 -1.0556  1.1098
 6079SOL    HW218416   4.301   3.825   5.696  2.5530  0.2217  3.5820
 6080SOL     OW18417   5.567   3.772   8.350  0.3085  0.2175  0.3893
 6080SOL    HW118418   5.565   3.871   8.336  0.2683  0.2668  0.7428
 6080SOL    HW218419   5.609   3.751   8.438  1.9378 -0.1595 -0.4482
 6081SOL     OW18420   7.080   1.790   0.962  0.1659 -0.9186 -0.5707
 6081SOL    HW118421   6.988   1.811   0.927 -0.0790 -0.1201  0.4820
 6081SOL    HW218422   7.112   1.866   1.018  0.8247 -1.8396  0.3453
 6082SOL     OW18423   5.064   5.191   4.549 -0.3998 -0.0389  0.2283
 6082SOL    HW118424   5.094   5.112   4.603 -0.5288  0.7118  1.4406
 6082SOL    HW218425   4.973   5.219   4.580 -1.0587 -0.3887 -1.2993
 6083SOL     OW18426   1.112   5.816   5.415  0.0828  0.1535 -0.5054
 6083SOL    HW118427   1.061   5.730   5.407  1.7719 -1.3026  2.4371
 6083SOL    HW218428   1.210   5.795   5.417  0.4963  1.8987  1.9635
 6084SOL     OW18429   7.002   0.781   7.020 -0.1700 -0.5660  0.5973
 6084SOL    HW118430   7.007   0.726   7.103 -0.6454  0.4236  1.3040
 6084SOL    HW218431   7.059   0.862   7.030  0.5472 -0.9200 -0.4460
 6085SOL     OW18432   0.772   7.423   4.945  0.4539  0.0111  0.0284
 6085SOL    HW118433   0.691   7.366   4.931 -0.5003  0.9834  1.4006
 6085SOL    HW218434   0.854   7.366   4.942 -0.4120 -1.2857  0.4384
 6086SOL     OW18435   2.690   2.769   7.060  0.2260 -0.2304  0.3015
 6086SOL    HW118436   2.627   2.751   7.136  0.7577 -2.7024  0.2648
 6086SOL    HW218437   2.640   2.813   6.985 -0.9287 -0.1038  1.1200
 6087SOL     OW18438   5.555   3.206   0.205  0.2681 -0.1805  0.5748
 6087SOL    HW118439   5.514   3.277   0.262 -0.0449 -0.4138  0.6441
 6087SOL    HW218440   5.488   3.134   0.188  1.2043 -1.5159  2.2786
 6088SOL     OW18441   3.951   2.548   2.096  0.4998  0.5895 -0.8429
 6088SOL    HW118442   3.878   2.615   2.107 -0.9284 -1.0175 -0.0379
 6088SOL    HW218443   4.031   2.592   2.057 -0.1375  2.8990  0.2927
 6089SOL     OW18444   6.149   7.160   2.181 -0.3780 -0.5181 -0.1036
 6089SOL    HW118445   6.156   7.105   2.265 -1.2493 -1.0035 -0.3300
 6089SOL    HW218446   6.191   7.250   2.196 -0.2464 -0.7127  0.7495
 6090SOL     OW18447   0.377   6.811   5.910 -0.1179  0.1327  0.0508
 6090SOL    HW118448   0.456   6.869   5.930 -0.4797  0.3301  0.9632
 6090SOL    HW218449   0.328   6.847   5.830 -0.1510  0.8974  0.4099
 6091SOL     OW18450   2.622   5.473   2.356  0.0303  0.5104  0.2127
 6091SOL    HW118451   2.571   5.477   2.269 -0.2962  3.3283  0.4610
 6091SOL    HW218452   2.607   5.383   2.398 -0.7114 -0.5271 -2.0747
 6092SOL     OW18453   0.435   6.263   5.639  0.5049 -0.2469 -0.3518
 6092SOL    HW118454   0.508   6.330   5.654  1.0779 -0.6412 -1.3238
 6092SOL    HW218455   0.346   6.309   5.646  0.8545  0.3446  0.3117
 6093SOL     OW18456   2.701   5.581   4.646 -0.1448  0.6234  0.1170
 6093SOL    HW118457   2.770   5.653   4.645 -0.5580  1.1149  2.1926
 6093SOL    HW218458   2.614   5.618   4.676 -1.3645 -0.0039 -2.4018
 6094SOL     OW18459   8.678   2.720   5.638 -0.0442  0.1313  0.2223
 6094SOL    HW118460   8.618   2.641   5.628 -0.9285  0.8244 -0.0540
 6094SOL    HW218461   8.633   2.801   5.601  0.8118  0.7873  0.5871
 6095SOL     OW18462   2.789   3.510   5.179 -0.9426  0.1944  0.8255
 6095SOL    HW118463   2.773   3.430   5.238  0.5240 -1.2497 -0.6127
 6095SOL    HW218464   2.838   3.580   5.230 -1.4355 -0.1903  1.8576
 6096SOL     OW18465   2.598   2.986   3.383  0.2405  0.4113 -0.0904
 6096SOL    HW118466   2.547   3.049   3.442  0.3415  0.8121 -0.4232
 6096SOL    HW218467   2.665   2.937   3.437 -1.5505 -1.3090  0.6777
 6097SOL     OW18468   7.625   5.971   5.732  0.4403 -0.0227 -0.2142
 6097SOL    HW118469   7.697   6.022   5.780 -0.6902 -0.5968  2.2830
 6097SOL    HW218470   7.551   6.034   5.707  0.6682  0.1461 -0.4716
 6098SOL     OW18471   5.246   2.518   5.885  0.0865  0.9400 -0.4629
 6098SOL    HW118472   5.314   2.524   5.958 -1.6065 -0.4233  1.3499
 6098SOL    HW218473   5.185   2.598   5.890  0.2000  1.0376 -0.6367
 6099SOL     OW18474   4.246   2.902   2.462 -0.7622  0.2283  0.3197
 6099SOL    HW118475   4.330   2.854   2.435 -0.4747  1.8724 -2.0756
 6099SOL    HW218476   4.185   2.838   2.509  1.2688 -1.3433  0.9959
 6100SOL     OW18477   0.608   4.626   0.253  0.1655  1.2110 -0.3885
 6100SOL    HW118478   0.545   4.556   0.218  0.5576  0.9775 -0.6403
 6100SOL    HW218479   0.584   4.714   0.212 -0.1103  1.1594 -0.3448
 6101SOL     OW18480   3.942   4.893   7.915  0.3933  0.1899  0.3089
 6101SOL    HW118481   3.943   4.837   7.997  2.2909 -1.3661 -0.6911
 6101SOL    HW218482   3.974   4.985   7.937  0.4672 -0.0761  1.3766
 6102SOL     OW18483   0.250   2.922   8.356 -0.7701 -0.3534  0.3556
 6102SOL    HW118484   0.273   2.910   8.260  1.5611  1.2885  0.6255
 6102SOL    HW218485   0.318   2.982   8.399 -1.7231 -1.0776  3.0399
 6103SOL     OW18486   8.686   7.525   0.300 -0.3433 -0.6285  0.3101
 6103SOL    HW118487   8.785   7.525   0.316  0.0579  1.8217 -1.5497
 6103SOL    HW218488   8.638   7.534   0.387  1.1017 -0.7788  1.1602
 6104SOL     OW18489   8.611   7.946   3.082  0.2139  0.2608  0.3172
 6104SOL    HW118490   8.597   7.918   3.177 -0.7968  0.1589  0.1560
 6104SOL    HW218491   8.536   8.006   3.054  0.5890  0.4213 -0.3661
 6105SOL     OW18492   4.773   3.005   0.169  1.0501  0.6732 -0.4518
 6105SOL    HW118493   4.810   2.914   0.184  0.5063  0.5859  0.4525
 6105SOL    HW218494   4.757   3.050   0.257 -3.5186 -0.3264 -0.5164
 6106SOL     OW18495   7.086   7.016   8.301  0.1875 -0.3135  0.5179
 6106SOL    HW118496   7.051   6.928   8.268  2.9743 -1.5801  0.6756
 6106SOL    HW218497   7.042   7.039   8.388 -1.6504 -0.7715 -0.2512
 6107SOL     OW18498   0.702   2.514   6.299  0.6218  0.5442 -0.4127
 6107SOL    HW118499   0.613   2.550   6.327 -0.1696 -0.9414 -0.9101
 6107SOL    HW218500   0.744   2.467   6.377  0.1011 -0.3729 -0.6683
 6108SOL     OW18501   2.938   5.532   0.800 -0.1964  0.5007  0.3227
 6108SOL    HW118502   3.009   5.583   0.752 -0.4694  0.6674  0.0928
 6108SOL    HW218503   2.979   5.478   0.873  0.8648 -2.7334 -2.3910
 6109SOL     OW18504   6.649   2.342   2.728 -0.0403  0.5243 -0.5537
 6109SOL    HW118505   6.666   2.410   2.799 -0.3195 -0.0434  0.0764
 6109SOL    HW218506   6.732   2.330   2.673  0.1213  1.1029 -0.4434
 6110SOL     OW18507   3.786   8.541   2.378 -0.2252  0.3225 -0.0142
 6110SOL    HW118508   3.809   8.538   2.475 -1.5420 -2.2333  0.3117
 6110SOL    HW218509   3.861   8.503   2.324 -0.1351  0.2443  0.1650
 6111SOL     OW18510   7.717   3.059   3.085  0.2549  0.1482 -0.0947
 6111SOL    HW118511   7.706   2.960   3.076 -0.5503  0.1550  0.6881
 6111SOL    HW218512   7.766   3.094   3.005 -0.6270 -0.6875 -1.0342
 6112SOL     OW18513   3.071   3.731   7.270  0.0659  0.8987 -0.0277
 6112SOL    HW118514   3.068   3.631   7.265 -2.8238  0.9261 -0.7405
 6112SOL    HW218515   3.165   3.762   7.257  1.4404 -1.7660  2.3739
 6113SOL     OW18516   2.401   4.681   2.705 -0.2339  0.4996 -0.5417
 6113SOL    HW118517   2.332   4.697   2.775 -1.1700  2.0936 -1.7653
 6113SOL    HW218518   2.418   4.766   2.655  1.4625 -0.2492 -1.3152
 6114SOL     OW18519   5.675   1.901   5.212  0.1646 -0.3155 -0.1772
 6114SOL    HW118520   5.606   1.889   5.139 -0.7460  0.4562  0.5360
 6114SOL    HW218521   5.734   1.979   5.189 -1.0028  0.8182  0.5476
 6115SOL     OW18522   5.056   5.534   4.667  0.5391  0.1288  0.2054
 6115SOL    HW118523   5.129   5.466   4.661  0.8681  0.5414 -0.4687
 6115SOL    HW218524   4.969   5.487   4.682  0.6183 -0.5340 -1.2288
 6116SOL     OW18525   1.785   8.094   2.427  0.2364  0.0132 -0.0904
 6116SOL    HW118526   1.750   8.117   2.518  0.2841 -0.4130  0.0369
 6116SOL    HW218527   1.882   8.119   2.422  0.2947 -0.1846  0.0555
 6117SOL     OW18528   5.881   2.911   5.327  0.4172 -0.6242  0.2462
 6117SOL    HW118529   5.838   2.821   5.335 -0.6945 -0.2545 -1.2645
 6117SOL    HW218530   5.968   2.902   5.279 -0.1526 -0.7943 -0.7877
 6118SOL     OW18531   7.216   5.261   7.543  0.4330 -0.4496  0.2425
 6118SOL    HW118532   7.241   5.223   7.632 -0.9674 -1.9238  0.0425
 6118SOL    HW218533   7.162   5.195   7.492 -0.6205  1.1622 -0.8428
 6119SOL     OW18534   1.881   0.326   2.066  0.6643  0.4282  0.7475
 6119SOL    HW118535   1.805   0.368   2.117  2.3866  1.4672  2.6009
 6119SOL    HW218536   1.851   0.238   2.029 -2.4604  2.2277 -1.5333
 6120SOL     OW18537   3.947   8.114   4.791  0.3847  0.0408  0.0232
 6120SOL    HW118538   3.899   8.050   4.851  0.4855 -0.0544  0.0013
 6120SOL    HW218539   3.977   8.067   4.708  0.2918  0.1602 -0.0802
 6121SOL     OW18540   4.056   8.430   5.407 -0.1952  0.6767  0.3911
 6121SOL    HW118541   3.966   8.392   5.386 -0.1237  0.7793 -0.1127
 6121SOL    HW218542   4.106   8.367   5.467  0.2382 -0.4075 -1.0750
 6122SOL     OW18543   7.251   4.628   7.155  0.1437 -0.2871 -0.1575
 6122SOL    HW118544   7.306   4.602   7.234 -0.2220 -0.2551  0.1087
 6122SOL    HW218545   7.307   4.620   7.072  1.0102  1.1307  0.2489
 6123SOL     OW18546   4.059   2.244   0.743  0.7371 -0.3789  0.3232
 6123SOL    HW118547   4.116   2.269   0.664 -1.9843  0.4339 -1.5395
 6123SOL    HW218548   4.060   2.317   0.810 -0.3836  1.0252 -1.1034
 6124SOL     OW18549   3.132   0.244   3.716 -0.1929 -0.4553  0.6159
 6124SOL    HW118550   3.124   0.303   3.797  1.2652 -0.6902  0.9687
 6124SOL    HW218551   3.056   0.262   3.654 -0.1946  1.2641  1.0677
 6125SOL     OW18552   0.936   2.656   6.460 -0.1592  0.3981 -0.3699
 6125SOL    HW118553   0.919   2.691   6.367  0.3823  0.9291 -0.2732
 6125SOL    HW218554   0.861   2.685   6.520 -0.0361  0.8484 -0.4325
 6126SOL     OW18555   6.066   2.611   0.278  0.1160 -0.3229 -0.4010
 6126SOL    HW118556   6.127   2.591   0.202  1.8108 -1.5362  1.2109
 6126SOL    HW218557   6.034   2.526   0.319 -0.2686  0.3002  0.6478
 6127SOL     OW18558   5.597   1.231   5.161 -0.0764  0.5031  0.2761
 6127SOL    HW118559   5.673   1.174   5.192 -1.0020 -0.3562  1.0572
 6127SOL    HW218560   5.581   1.215   5.064  0.8714  0.8651  0.0478
 6128SOL     OW18561   1.539   7.779   3.416 -0.1174 -0.2122  0.1860
 6128SOL    HW118562   1.453   7.826   3.396  0.5036  0.9863  0.2620
 6128SOL    HW218563   1.616   7.834   3.385  0.6882 -0.5627  1.4704
 6129SOL     OW18564   1.698   6.241   7.235  0.1944  0.0338 -0.1725
 6129SOL    HW118565   1.745   6.211   7.318 -0.5381 -0.4349  0.0807
 6129SOL    HW218566   1.665   6.162   7.185  0.3122  0.3310 -0.7285
 6130SOL     OW18567   7.924   0.395   8.307  0.0482  0.0046  0.1351
 6130SOL    HW118568   7.916   0.467   8.238 -2.0119 -0.8905 -0.6521
 6130SOL    HW218569   7.893   0.309   8.268  0.4025 -0.8754  1.7169
 6131SOL     OW18570   5.403   4.625   7.161 -0.1616  0.2572  0.2081
 6131SOL    HW118571   5.331   4.603   7.096  0.0515 -0.6332  0.2615
 6131SOL    HW218572   5.380   4.585   7.250  1.1400 -1.4411 -0.1620
 6132SOL     OW18573   3.562   0.820   1.768  0.1495  0.2302  0.1816
 6132SOL    HW118574   3.470   0.825   1.806 -0.7155 -0.4362 -1.6699
 6132SOL    HW218575   3.564   0.873   1.683  1.0372 -0.9912 -0.5812
 6133SOL     OW18576   1.184   2.405   5.482 -0.0946  0.3892 -0.2594
 6133SOL    HW118577   1.116   2.371   5.418 -0.2475 -2.0662  1.1178
 6133SOL    HW218578   1.163   2.374   5.574  1.6481  1.5001  0.5786
 6134SOL     OW18579   5.959   4.613   5.877 -0.0575  0.1100  0.0935
 6134SOL    HW118580   6.006   4.699   5.858 -0.3866 -0.2298 -2.5523
 6134SOL    HW218581   5.863   4.631   5.899 -0.0135  0.4277  0.0247
 6135SOL     OW18582   0.461   0.926   2.700  0.1327 -0.0734  0.4507
 6135SOL    HW118583   0.532   0.996   2.702 -0.2335  0.3201 -0.3678
 6135SOL    HW218584   0.480   0.861   2.627 -0.0572 -0.2771  0.5795
 6136SOL     OW18585   0.094   4.392   2.174  0.2808  0.0507  0.6457
 6136SOL    HW118586   0.156   4.371   2.250  2.1080 -1.9835 -1.2821
 6136SOL    HW218587   0.057   4.308   2.136  0.2328  0.9187 -1.3780
 6137SOL     OW18588   1.863   0.359   8.285  0.2615  1.0073  0.3448
 6137SOL    HW118589   1.806   0.436   8.257 -0.3000  0.9118  1.1795
 6137SOL    HW218590   1.846   0.282   8.223 -0.4618  1.0095  0.5238
 6138SOL     OW18591   1.767   5.961   0.465  0.0245 -0.3470 -0.6504
 6138SOL    HW118592   1.677   5.980   0.506  0.0007  1.1841 -1.3173
 6138SOL    HW218593   1.830   5.931   0.536 -0.3049  1.1918  0.3487
 6139SOL     OW18594   6.747   2.162   0.846 -0.7655 -0.0886 -0.0133
 6139SOL    HW118595   6.716   2.116   0.929  0.7751  0.2052  0.7642
 6139SOL    HW218596   6.741   2.261   0.859 -1.3656 -0.0420 -0.6009
 6140SOL     OW18597   3.735   0.225   7.887 -0.1331 -0.3954  0.0827
 6140SOL    HW118598   3.787   0.204   7.804  1.6895 -0.0245  1.0575
 6140SOL    HW218599   3.722   0.142   7.940 -1.9406 -0.7629 -0.8855
 6141SOL     OW18600   8.467   6.109   7.865 -0.4625 -0.1591  0.0375
 6141SOL    HW118601   8.548   6.136   7.917  0.3200 -1.6121 -0.3935
 6141SOL    HW218602   8.472   6.148   7.773 -0.6218  0.3490  0.2403
 6142SOL     OW18603   6.334   4.416   1.808  0.0242 -0.1749 -0.7520
 6142SOL    HW118604   6.391   4.384   1.884 -1.0592 -0.3383  0.0298
 6142SOL    HW218605   6.389   4.425   1.726  1.5826  1.4840  0.4125
 6143SOL     OW18606   0.788   4.053   8.759 -0.5711  0.4343  0.4517
 6143SOL    HW118607   0.882   4.075   8.783 -0.2846  1.3470 -1.3293
 6143SOL    HW218608   0.762   3.966   8.803  1.4449 -0.3816  0.1553
 6144SOL     OW18609   5.457   4.225   4.815 -0.5032 -0.3125  0.5533
 6144SOL    HW118610   5.423   4.269   4.732 -1.7176 -1.1463  0.5678
 6144SOL    HW218611   5.530   4.280   4.855 -0.5440  0.5838 -0.5455
 6145SOL     OW18612   3.845   0.067   6.704  0.5466 -0.1935 -0.5436
 6145SOL    HW118613   3.835   0.133   6.630  2.0151  0.8217  0.1277
 6145SOL    HW218614   3.777   0.085   6.775 -0.7697 -1.0775 -1.5150
 6146SOL     OW18615   8.199   8.202   5.809  0.0821 -0.2963 -0.4872
 6146SOL    HW118616   8.165   8.111   5.785 -1.2382  0.4756 -1.6979
 6146SOL    HW218617   8.258   8.195   5.889 -1.6771 -1.9461  0.7588
 6147SOL     OW18618   2.765   5.755   2.794  0.2724  1.4609  0.2952
 6147SOL    HW118619   2.726   5.739   2.703  0.5084  0.3869  0.3714
 6147SOL    HW218620   2.863   5.774   2.785  0.8474 -1.0653  0.4555
 6148SOL     OW18621   7.540   0.750   6.587 -0.0239  0.3067 -0.1954
 6148SOL    HW118622   7.571   0.705   6.503 -1.4677 -0.5139 -0.3250
 6148SOL    HW218623   7.468   0.816   6.565 -1.1049 -0.6069  0.4649
 6149SOL     OW18624   8.686   5.040   6.707 -0.3615  0.2508 -0.5392
 6149SOL    HW118625   8.674   4.975   6.632 -0.8336  0.1912 -0.4173
 6149SOL    HW218626   8.752   5.004   6.773  0.2000  0.3875 -1.0153
 6150SOL     OW18627   7.799   2.297   6.317  0.3927 -0.1069  0.0010
 6150SOL    HW118628   7.807   2.246   6.403 -2.7270 -1.3759 -0.3042
 6150SOL    HW218629   7.788   2.233   6.241  0.6137  1.0181 -1.0133
 6151SOL     OW18630   7.927   7.907   3.497 -0.1369  0.6619  0.0024
 6151SOL    HW118631   7.871   7.957   3.430 -2.2657 -0.6481  0.7141
 6151SOL    HW218632   8.016   7.885   3.456 -0.5784  1.6826 -1.6307
 6152SOL     OW18633   4.302   4.502   7.660  0.5871 -0.2304 -0.3079
 6152SOL    HW118634   4.273   4.597   7.651  1.8187  0.0735 -1.4696
 6152SOL    HW218635   4.358   4.477   7.581  1.7473 -1.3718  0.8272
 6153SOL     OW18636   5.381   0.043   1.724 -0.0427 -0.3433  0.2188
 6153SOL    HW118637   5.356   0.133   1.688  0.6901 -0.0127  0.5289
 6153SOL    HW218638   5.475   0.021   1.697  0.3858 -0.2625  1.5987
 6154SOL     OW18639   8.536   4.374   4.992  0.0441  0.3475  0.0651
 6154SOL    HW118640   8.466   4.372   5.063 -0.2342 -0.3685 -0.2192
 6154SOL    HW218641   8.620   4.413   5.030 -0.5075  1.2682  0.3953
 6155SOL     OW18642   4.023   0.466   2.198  0.3071 -0.1453  0.7032
 6155SOL    HW118643   3.937   0.425   2.166  0.3835 -0.2971  0.6945
 6155SOL    HW218644   4.046   0.430   2.288  0.7115 -0.6112  0.4160
 6156SOL     OW18645   0.215   5.028   7.701 -0.0025  0.1521 -0.1380
 6156SOL    HW118646   0.127   5.072   7.682  0.8703  0.9716 -2.6514
 6156SOL    HW218647   0.279   5.048   7.627  2.0786 -1.1044  1.2203
 6157SOL     OW18648   3.449   3.093   3.431  0.1172 -0.6109  0.3595
 6157SOL    HW118649   3.521   3.038   3.389  0.4864 -1.1098  1.5826
 6157SOL    HW218650   3.422   3.051   3.518  0.3605  1.1015  1.3073
 6158SOL     OW18651   0.460   7.261   8.819  0.5738  0.9854  0.4327
 6158SOL    HW118652   0.403   7.264   8.736  0.1638 -0.8900  0.6084
 6158SOL    HW218653   0.537   7.324   8.809  0.1766  1.2606 -1.1086
 6159SOL     OW18654   7.204   5.053   7.043 -0.1079 -0.5119 -0.6073
 6159SOL    HW118655   7.253   5.030   7.127 -0.6426 -0.5741 -0.3122
 6159SOL    HW218656   7.262   5.032   6.964  1.2233  1.4208 -0.2222
 6160SOL     OW18657   2.871   1.686   7.859  0.2672  0.0764 -0.7434
 6160SOL    HW118658   2.778   1.672   7.825  0.3053  0.1478 -0.8790
 6160SOL    HW218659   2.910   1.598   7.888  0.0279  0.1014 -0.3485
 6161SOL     OW18660   6.773   7.872   7.179  0.1585  0.3521  0.6496
 6161SOL    HW118661   6.697   7.838   7.124  0.7492 -0.6026  0.3982
 6161SOL    HW218662   6.815   7.950   7.132 -0.3246  0.5395  0.5248
 6162SOL     OW18663   4.090   1.019   7.683  0.2068 -0.4458 -0.0048
 6162SOL    HW118664   4.019   1.059   7.742 -0.2118  0.1767 -0.9116
 6162SOL    HW218665   4.180   1.043   7.720  0.0022  2.0617 -0.9035
 6163SOL     OW18666   1.764   3.911   4.597  0.0693  0.3398  0.2986
 6163SOL    HW118667   1.781   3.948   4.688  0.2304  0.2658  0.2974
 6163SOL    HW218668   1.764   3.985   4.530 -1.4392  0.6056  0.5383
 6164SOL     OW18669   3.399   2.423   7.345 -0.4418  0.0576 -0.1104
 6164SOL    HW118670   3.353   2.349   7.295  2.0876 -0.1181 -2.4161
 6164SOL    HW218671   3.488   2.442   7.302  0.5620  2.0520  2.5707
 6165SOL     OW18672   3.944   3.146   6.764 -0.1035 -0.1872  0.4649
 6165SOL    HW118673   4.031   3.158   6.716  0.6619 -0.2606  1.7559
 6165SOL    HW218674   3.943   3.057   6.809 -0.9483 -0.2797  0.2598
 6166SOL     OW18675   3.318   5.084   3.540 -0.2801  0.2957  0.5067
 6166SOL    HW118676   3.281   5.069   3.632  0.1666 -0.0877  0.6334
 6166SOL    HW218677   3.393   5.150   3.545  0.6674 -0.7616  0.6496
 6167SOL     OW18678   5.904   2.437   0.872 -0.3361  0.3846  0.2708
 6167SOL    HW118679   5.969   2.393   0.934  0.0356  0.5446 -0.0016
 6167SOL    HW218680   5.834   2.370   0.845  0.4532 -0.1740 -0.4572
 6168SOL     OW18681   4.551   8.118   4.105  0.0961 -0.0647  0.2787
 6168SOL    HW118682   4.522   8.212   4.093 -1.0884 -0.4553 -0.0505
 6168SOL    HW218683   4.503   8.078   4.183 -0.7857 -0.9215 -0.6709
 6169SOL     OW18684   7.103   0.778   2.345 -0.2986 -0.0142  0.4554
 6169SOL    HW118685   7.183   0.792   2.403 -0.9052 -0.4204  1.4088
 6169SOL    HW218686   7.020   0.780   2.401 -0.8530 -1.0753 -0.2911
 6170SOL     OW18687   8.611   4.910   2.582 -0.1855  0.3878 -0.3454
 6170SOL    HW118688   8.525   4.949   2.614 -0.3962  0.0202 -0.4551
 6170SOL    HW218689   8.637   4.834   2.642 -1.8892 -2.0000 -2.4239
 6171SOL     OW18690   6.004   4.357   6.577 -0.1985  0.0571  0.0458
 6171SOL    HW118691   6.029   4.314   6.663 -1.2525  0.9941  0.8585
 6171SOL    HW218692   6.057   4.441   6.565 -0.9100  0.5679  0.3968
 6172SOL     OW18693   3.270   8.037   8.704  0.2908 -0.5725 -0.6216
 6172SOL    HW118694   3.231   7.997   8.622 -1.1301  0.7223 -0.6109
 6172SOL    HW218695   3.355   7.990   8.727  0.4123 -1.3265 -2.4917
 6173SOL     OW18696   2.955   2.177   6.682  0.3372  0.3478 -0.1923
 6173SOL    HW118697   2.879   2.233   6.717  1.1468  0.9449  0.6784
 6173SOL    HW218698   2.947   2.169   6.583 -2.1149 -1.4985  0.0563
 6174SOL     OW18699   7.412   5.647   2.382  0.3555 -0.2112 -0.0280
 6174SOL    HW118700   7.462   5.697   2.311 -1.6236  1.1225 -0.5455
 6174SOL    HW218701   7.477   5.596   2.438  2.3290  1.7532 -0.3977
 6175SOL     OW18702   6.134   3.463   1.950 -0.1388 -0.2097  0.1958
 6175SOL    HW118703   6.178   3.492   1.865  0.4464 -1.7296 -0.0461
 6175SOL    HW218704   6.035   3.480   1.944  0.1462  1.6591  0.0770
 6176SOL     OW18705   0.861   2.333   3.222  0.2471  0.0836 -1.0117
 6176SOL    HW118706   0.854   2.235   3.241  0.2475  0.6195  2.2443
 6176SOL    HW218707   0.944   2.351   3.170  0.8654 -1.5067 -0.6368
 6177SOL     OW18708   3.385   5.133   8.318  0.1799  0.4412  0.4608
 6177SOL    HW118709   3.401   5.035   8.302 -1.0823  0.0101  1.6611
 6177SOL    HW218710   3.470   5.177   8.344  0.7886 -0.3029 -0.2116
 6178SOL     OW18711   2.387   7.595   0.751  0.0542  0.0120  0.1567
 6178SOL    HW118712   2.446   7.653   0.808 -1.2626 -0.7555  2.4712
 6178SOL    HW218713   2.422   7.501   0.753 -0.0104 -0.0217 -0.3150
 6179SOL     OW18714   4.753   3.850   0.083 -0.3503 -0.0209 -0.9391
 6179SOL    HW118715   4.805   3.765   0.090  0.1670  0.4106  1.1245
 6179SOL    HW218716   4.673   3.845   0.143 -0.7092  0.6811 -1.3479
 6180SOL     OW18717   6.245   3.877   8.775 -0.1216  0.5738 -0.3391
 6180SOL    HW118718   6.222   3.925   8.860 -0.5992  0.7552 -0.5669
 6180SOL    HW218719   6.208   3.784   8.778 -2.9662  1.5614 -1.6265
 6181SOL     OW18720   4.773   5.552   1.682  0.0524 -0.5073 -0.1109
 6181SOL    HW118721   4.821   5.607   1.750 -1.1120  0.8703 -0.3601
 6181SOL    HW218722   4.690   5.514   1.723 -0.6603  0.3383 -0.7370
 6182SOL     OW18723   6.266   8.488   2.244 -0.9473  0.2817 -0.1852
 6182SOL    HW118724   6.281   8.564   2.180 -1.4564 -1.9443 -3.1689
 6182SOL    HW218725   6.178   8.446   2.225 -0.7687 -0.9511  1.5249
 6183SOL     OW18726   2.102   3.327   0.246 -0.7684 -0.1438 -0.1524
 6183SOL    HW118727   2.021   3.311   0.190 -0.8380  1.3981 -0.5321
 6183SOL    HW218728   2.169   3.254   0.230 -0.7180  0.3276 -2.3585
 6184SOL     OW18729   5.627   0.185   8.502  0.3941 -0.2272  0.1713
 6184SOL    HW118730   5.616   0.086   8.489  1.1346 -0.0315 -2.6035
 6184SOL    HW218731   5.708   0.216   8.453  1.0751  1.5742  2.2968
 6185SOL     OW18732   4.866   0.140   4.460 -0.5297 -0.3343  0.0389
 6185SOL    HW118733   4.847   0.117   4.364 -3.5580 -1.3908  0.7740
 6185SOL    HW218734   4.824   0.228   4.482  1.0136  0.3910  0.1885
 6186SOL     OW18735   3.961   4.855   6.418  0.4899  0.1170  0.1779
 6186SOL    HW118736   3.928   4.796   6.492 -1.9324 -2.0661 -2.3674
 6186SOL    HW218737   3.992   4.798   6.342  2.6014  2.2509 -0.6853
 6187SOL     OW18738   3.644   6.668   2.895 -0.3244  0.3089  0.0994
 6187SOL    HW118739   3.547   6.642   2.896  0.0512 -1.2925 -1.2830
 6187SOL    HW218740   3.655   6.753   2.844 -0.8437 -0.3764 -1.2046
 6188SOL     OW18741   2.187   8.722   7.446 -0.4672 -0.1887 -0.1289
 6188SOL    HW118742   2.178   8.821   7.434 -0.6339 -0.2671 -0.6703
 6188SOL    HW218743   2.258   8.687   7.385  0.1714 -0.2869  0.6588
 6189SOL     OW18744   8.251   4.818   1.057  0.8474 -0.0572  0.2238
 6189SOL    HW118745   8.328   4.777   1.008  0.9889  0.0303  0.3730
 6189SOL    HW218746   8.224   4.757   1.132  0.9285  0.0285  0.3222
 6190SOL     OW18747   1.152   2.515   5.813  0.1148 -0.5998 -0.0509
 6190SOL    HW118748   1.174   2.421   5.787 -1.4719 -0.8056 -0.7770
 6190SOL    HW218749   1.053   2.527   5.812  0.3059  1.1787 -0.2793
 6191SOL     OW18750   3.875   6.319   3.460 -0.5325 -0.0669 -0.9322
 6191SOL    HW118751   3.898   6.222   3.465 -1.9666 -0.3937  0.1007
 6191SOL    HW218752   3.949   6.369   3.415  0.2027 -1.6341 -1.5349
 6192SOL     OW18753   1.355   0.033   3.138  0.5239  0.1238  0.1844
 6192SOL    HW118754   1.335   0.033   3.236 -0.1984  0.2288  0.0358
 6192SOL    HW218755   1.331   0.122   3.099 -0.3485 -0.3278 -0.3264
 6193SOL     OW18756   0.699   6.248   3.179 -0.3795 -0.4307  0.1693
 6193SOL    HW118757   0.757   6.178   3.137 -0.4712 -1.2514  1.3684
 6193SOL    HW218758   0.624   6.272   3.117  0.2603 -0.6096 -0.6838
 6194SOL     OW18759   6.139   7.976   3.598  0.1681  0.2657  0.2629
 6194SOL    HW118760   6.055   7.934   3.632  2.1247 -1.4468  3.4088
 6194SOL    HW218761   6.169   7.927   3.516 -1.5172  0.5302 -0.5658
 6195SOL     OW18762   0.390   5.319   4.066  0.0742  0.4225  0.4831
 6195SOL    HW118763   0.460   5.306   3.995  1.3613 -1.9948  2.0723
 6195SOL    HW218764   0.426   5.378   4.138 -0.1275  0.5086  0.5131
 6196SOL     OW18765   3.226   5.151   0.143  0.5430  0.1482 -0.0959
 6196SOL    HW118766   3.166   5.072   0.132 -1.7084  1.8119 -0.3806
 6196SOL    HW218767   3.300   5.146   0.076  0.1278 -1.4049 -0.4779
 6197SOL     OW18768   2.951   6.696   3.485 -0.1735 -0.1462  0.2939
 6197SOL    HW118769   2.891   6.668   3.411 -0.4901 -0.6627  0.7442
 6197SOL    HW218770   2.899   6.703   3.570 -0.0557  1.4937  0.2799
 6198SOL     OW18771   2.302   6.709   6.335 -0.2671  0.0019  0.1808
 6198SOL    HW118772   2.259   6.742   6.419  1.8012  1.9194  0.6138
 6198SOL    HW218773   2.353   6.625   6.354  0.2719  0.4787  0.9266
 6199SOL     OW18774   2.972   7.459   7.434 -0.0609  0.4463 -0.1888
 6199SOL    HW118775   2.917   7.375   7.439 -0.7922  0.8522 -1.2243
 6199SOL    HW218776   3.057   7.440   7.384 -0.0816  0.2556 -0.1523
 6200SOL     OW18777   6.464   1.792   6.924  0.1476 -0.2824 -0.1340
 6200SOL    HW118778   6.556   1.815   6.892  0.8607 -1.2040  1.1447
 6200SOL    HW218779   6.455   1.816   7.021 -1.2208  0.4648 -0.4114
 6201SOL     OW18780   3.760   0.410   4.301 -0.2440  0.1274 -0.6928
 6201SOL    HW118781   3.713   0.324   4.320 -1.2953  0.3053 -2.3192
 6201SOL    HW218782   3.693   0.480   4.278  0.6178  1.3465  0.3594
 6202SOL     OW18783   7.954   7.540   2.171  0.1190  0.2446  0.1593
 6202SOL    HW118784   7.943   7.486   2.088  0.7213  1.6957 -0.8958
 6202SOL    HW218785   8.051   7.546   2.196  0.3881  2.7887 -1.1561
 6203SOL     OW18786   1.802   3.449   1.562  0.1317 -0.0091 -0.2246
 6203SOL    HW118787   1.705   3.439   1.585  0.3183 -0.5290  0.3765
 6203SOL    HW218788   1.850   3.491   1.638  0.1060  1.8023 -1.1528
 6204SOL     OW18789   2.759   1.176   4.478  0.1661 -0.0679 -0.2332
 6204SOL    HW118790   2.768   1.082   4.446  1.2750 -0.0675  0.0404
 6204SOL    HW218791   2.842   1.203   4.527  0.0130  1.1809 -0.6285
 6205SOL     OW18792   7.735   2.647   5.986 -0.2670  0.3223  0.4412
 6205SOL    HW118793   7.802   2.617   5.919  0.7000  1.0678  1.0437
 6205SOL    HW218794   7.754   2.742   6.012 -2.2309  0.9397 -0.1841
 6206SOL     OW18795   0.796   5.615   3.455  0.3485  0.5645 -0.3869
 6206SOL    HW118796   0.878   5.629   3.512  0.9339  1.3146 -1.3699
 6206SOL    HW218797   0.715   5.643   3.506  0.7239  0.1096  0.4936
 6207SOL     OW18798   5.103   0.684   6.973  0.0425 -0.0460  0.7098
 6207SOL    HW118799   5.163   0.750   6.928 -1.7035  0.3615 -1.1356
 6207SOL    HW218800   5.011   0.722   6.982 -0.6545 -1.6950  0.8926
 6208SOL     OW18801   5.912   7.860   1.264  0.5570  0.1421 -0.1458
 6208SOL    HW118802   5.979   7.808   1.209  1.6709  0.9068  0.4494
 6208SOL    HW218803   5.915   7.828   1.358  1.1867  1.1817  0.2082
 6209SOL     OW18804   1.113   6.712   8.710  0.2411  0.2549  0.6250
 6209SOL    HW118805   1.201   6.738   8.670  1.2129 -1.6652  1.3643
 6209SOL    HW218806   1.041   6.720   8.642  1.1422  0.9570 -0.2696
 6210SOL     OW18807   8.176   3.717   6.317  0.1019  0.3834 -0.1594
 6210SOL    HW118808   8.147   3.805   6.351  0.0678  0.6779 -0.9193
 6210SOL    HW218809   8.268   3.696   6.351 -0.8788 -0.4827  2.1168
 6211SOL     OW18810   2.196   5.400   8.558 -0.0370 -0.4914 -0.3343
 6211SOL    HW118811   2.234   5.383   8.467  0.7328 -0.5583 -0.0084
 6211SOL    HW218812   2.234   5.485   8.595  2.9094 -2.4373  1.5813
 6212SOL     OW18813   7.797   5.893   5.214 -0.5160 -0.7416  0.1110
 6212SOL    HW118814   7.790   5.968   5.280 -0.5004 -1.7191  1.2447
 6212SOL    HW218815   7.846   5.817   5.255 -0.6413 -1.4374 -0.9879
 6213SOL     OW18816   3.594   8.476   8.723  0.3599 -0.1468  0.1930
 6213SOL    HW118817   3.686   8.445   8.699  0.6860  0.3225  0.8097
 6213SOL    HW218818   3.580   8.466   8.822  0.3020  1.1844  0.3347
 6214SOL     OW18819   4.991   0.809   6.587  0.6263 -0.1989 -0.3955
 6214SOL    HW118820   5.069   0.786   6.646 -1.0620 -2.3005  1.1944
 6214SOL    HW218821   4.914   0.838   6.643 -0.6162 -0.9148 -1.6627
 6215SOL     OW18822   7.516   8.407   4.974  0.2975  0.2282  0.0113
 6215SOL    HW118823   7.602   8.359   4.961 -0.2729 -0.7337 -0.3110
 6215SOL    HW218824   7.440   8.346   4.953 -0.4708  1.0338  0.3743
 6216SOL     OW18825   8.510   0.626   8.212  0.3677  0.2150  0.2495
 6216SOL    HW118826   8.468   0.635   8.122 -1.8909 -0.0051  1.2244
 6216SOL    HW218827   8.499   0.712   8.263 -1.3602 -0.6758  1.4755
 6217SOL     OW18828   0.264   5.374   5.489  0.6955 -0.2980 -0.1162
 6217SOL    HW118829   0.184   5.396   5.546  0.6179  1.9182 -0.9606
 6217SOL    HW218830   0.233   5.353   5.396  1.0363 -0.5538 -0.1724
 6218SOL     OW18831   3.928   7.878   4.374 -0.1576 -0.0377  0.1750
 6218SOL    HW118832   3.838   7.904   4.411  0.2545  1.9008 -0.0886
 6218SOL    HW218833   3.918   7.855   4.277 -0.6509 -1.6707  0.5853
 6219SOL     OW18834   0.187   7.877   4.401  0.2032 -0.1514 -0.1742
 6219SOL    HW118835   0.091   7.870   4.375  0.8026 -0.6589 -2.5497
 6219SOL    HW218836   0.231   7.948   4.345  1.3553 -0.4077  0.3839
 6220SOL     OW18837   6.457   4.409   4.184 -0.4818  0.1649 -0.2969
 6220SOL    HW118838   6.435   4.451   4.096 -1.6816  2.0519  0.8359
 6220SOL    HW218839   6.381   4.349   4.211 -0.9707  1.0266  0.2778
 6221SOL     OW18840   8.118   1.251   7.554 -0.1994 -0.4486 -0.4062
 6221SOL    HW118841   8.166   1.326   7.600  0.2663 -1.3344  0.5962
 6221SOL    HW218842   8.021   1.254   7.579  0.0031 -0.7653  0.4443
 6222SOL     OW18843   7.869   8.325   0.204  0.3351  0.2743  0.0795
 6222SOL    HW118844   7.840   8.420   0.195 -0.8214 -0.0595  0.0916
 6222SOL    HW218845   7.896   8.290   0.115 -2.0869 -0.2443 -0.5037
 6223SOL     OW18846   7.167   6.527   7.610 -0.1582 -0.5546  0.0449
 6223SOL    HW118847   7.136   6.433   7.624  1.3289 -0.9352  0.9332
 6223SOL    HW218848   7.225   6.531   7.528  0.3678 -0.5580  0.4148
 6224SOL     OW18849   5.575   6.371   5.414 -0.2187 -0.2866  0.2292
 6224SOL    HW118850   5.549   6.402   5.323 -4.4523 -1.0833  0.9753
 6224SOL    HW218851   5.571   6.448   5.478  1.6434  0.0286  0.0380
 6225SOL     OW18852   4.655   5.293   3.876 -0.0643 -0.1301  0.1985
 6225SOL    HW118853   4.699   5.203   3.881  0.2677 -0.1241 -1.7902
 6225SOL    HW218854   4.679   5.337   3.789  1.2246  2.6763  1.8222
 6226SOL     OW18855   6.765   1.786   4.849 -1.0484 -0.0951  0.2776
 6226SOL    HW118856   6.846   1.838   4.823 -0.3516 -1.2264  0.1480
 6226SOL    HW218857   6.684   1.845   4.841 -0.8152 -0.0880 -3.5746
 6227SOL     OW18858   8.043   6.988   6.524  0.8325  0.2225 -0.3159
 6227SOL    HW118859   8.079   6.944   6.606  1.9865 -1.2029 -1.5414
 6227SOL    HW218860   7.955   7.031   6.545  1.2776  0.2215  1.7356
 6228SOL     OW18861   5.966   4.938   5.319  0.4087 -0.1724 -0.2807
 6228SOL    HW118862   5.996   5.033   5.326 -0.6702  0.2225 -0.7350
 6228SOL    HW218863   6.045   4.878   5.309  1.1929  0.5390  1.2302
 6229SOL     OW18864   6.510   5.873   5.655 -0.1624  0.4600 -0.4730
 6229SOL    HW118865   6.485   5.868   5.558 -0.0688 -0.4317 -0.4602
 6229SOL    HW218866   6.590   5.816   5.672 -0.3260  0.4141  0.1727
 6230SOL     OW18867   8.712   3.904   7.524  0.3159  0.5473 -0.0824
 6230SOL    HW118868   8.628   3.918   7.471 -0.2590 -0.8575  0.3976
 6230SOL    HW218869   8.720   3.807   7.548  2.1799  0.6211 -0.2628
 6231SOL     OW18870   0.153   5.894   5.250 -0.5455  0.1684 -0.7070
 6231SOL    HW118871   0.080   5.837   5.212  0.9221 -2.0593 -0.3514
 6231SOL    HW218872   0.124   5.929   5.340 -1.0943 -0.9058 -0.4470
 6232SOL     OW18873   4.092   7.640   6.619 -0.2940 -0.5173  0.6758
 6232SOL    HW118874   4.017   7.667   6.559  2.3764  0.0724 -2.7046
 6232SOL    HW218875   4.122   7.547   6.597  1.8042  0.3061 -0.1735
 6233SOL     OW18876   5.800   6.424   6.405  0.9712  0.0570  0.1066
 6233SOL    HW118877   5.849   6.509   6.424  1.2241 -0.4029  1.5990
 6233SOL    HW218878   5.725   6.414   6.470  1.1871 -1.0449  0.1927
 6234SOL     OW18879   1.235   6.046   2.564  0.8271  0.2168  0.4836
 6234SOL    HW118880   1.262   6.135   2.528  1.1456 -0.0874 -0.0430
 6234SOL    HW218881   1.182   5.996   2.496 -1.6225  1.0201  1.6908
 6235SOL     OW18882   0.991   8.268   4.557  0.0681 -0.0284 -0.1127
 6235SOL    HW118883   0.914   8.205   4.568  1.1157 -1.3837 -0.2940
 6235SOL    HW218884   1.066   8.238   4.616  0.8940  0.5604 -0.8533
 6236SOL     OW18885   5.378   1.841   2.555 -0.4029 -0.5345 -0.7309
 6236SOL    HW118886   5.455   1.778   2.564 -1.1906 -1.4253  0.1311
 6236SOL    HW218887   5.399   1.928   2.599 -0.4398 -1.3058  0.8662
 6237SOL     OW18888   4.834   1.678   5.197 -0.5136 -0.2772  0.2851
 6237SOL    HW118889   4.901   1.662   5.124 -0.2809 -0.2282  0.4878
 6237SOL    HW218890   4.840   1.605   5.265 -0.7177 -0.3117  0.2681
 6238SOL     OW18891   4.176   0.745   6.714 -0.2619 -0.6573  0.4312
 6238SOL    HW118892   4.173   0.772   6.810  2.0907 -3.5620  1.4495
 6238SOL    HW218893   4.102   0.680   6.696 -1.8153  1.2229 -0.2801
 6239SOL     OW18894   2.713   4.809   0.981  0.4818  0.1342 -0.8360
 6239SOL    HW118895   2.668   4.868   1.048 -0.6325 -0.0746 -1.3680
 6239SOL    HW218896   2.701   4.847   0.890 -1.4679 -1.5567 -1.3673
 6240SOL     OW18897   1.990   0.630   0.570  0.5451 -0.3204  0.1163
 6240SOL    HW118898   2.008   0.541   0.613  1.0184  0.7627  2.2704
 6240SOL    HW218899   1.895   0.633   0.538  0.4739 -1.5193  0.1705
 6241SOL     OW18900   2.580   8.366   1.513  0.2309  0.2393  0.3174
 6241SOL    HW118901   2.528   8.341   1.595  0.0510  0.1905  0.1888
 6241SOL    HW218902   2.519   8.411   1.447  0.6605  1.5259  0.7667
 6242SOL     OW18903   6.900   5.554   6.997 -0.4616  0.4775 -0.1471
 6242SOL    HW118904   6.966   5.555   7.072  1.4791 -0.4906 -1.7801
 6242SOL    HW218905   6.811   5.522   7.031  0.1876  0.6926  1.8504
 6243SOL     OW18906   1.728   1.474   3.578  0.8023 -0.3223 -0.6643
 6243SOL    HW118907   1.778   1.399   3.535  1.5013  0.0897 -0.5932
 6243SOL    HW218908   1.738   1.469   3.677  0.1767 -0.5923 -0.6101
 6244SOL     OW18909   7.381   1.577   5.288  0.3295 -0.3672 -0.5964
 6244SOL    HW118910   7.460   1.594   5.229 -0.0803  0.4919 -0.9248
 6244SOL    HW218911   7.410   1.528   5.370  1.2593  0.2085 -0.5651
 6245SOL     OW18912   3.196   3.452   4.006  0.3764 -0.4572  0.2800
 6245SOL    HW118913   3.295   3.453   4.021  0.3141 -2.0979  0.9621
 6245SOL    HW218914   3.175   3.392   3.929 -0.0984 -0.2206  0.2250
 6246SOL     OW18915   4.209   0.978   0.840 -0.3315 -0.0499  0.0232
 6246SOL    HW118916   4.125   0.942   0.800 -0.2628 -0.5936  0.3574
 6246SOL    HW218917   4.267   0.902   0.870  0.0789  0.3290  0.2016
 6247SOL     OW18918   7.156   4.924   0.152  0.0832  0.4472 -0.1277
 6247SOL    HW118919   7.162   4.937   0.251  0.9189 -1.1111  0.0611
 6247SOL    HW218920   7.064   4.949   0.120  0.0622  1.7729  0.8797
 6248SOL     OW18921   7.515   4.131   6.801  0.0966 -0.3202 -0.5043
 6248SOL    HW118922   7.561   4.069   6.864 -1.3398 -0.0133  0.9269
 6248SOL    HW218923   7.490   4.082   6.717 -0.2464 -1.4566  0.2432
 6249SOL     OW18924   4.459   8.419   8.270  0.2787 -0.0043  0.4810
 6249SOL    HW118925   4.413   8.332   8.286  0.7765 -0.1874  0.9625
 6249SOL    HW218926   4.395   8.484   8.229 -0.6350 -0.0153  1.8280
 6250SOL     OW18927   5.384   1.841   5.634  0.1061 -0.2236  0.2879
 6250SOL    HW118928   5.356   1.936   5.616  1.0758  0.0687  0.2598
 6250SOL    HW218929   5.432   1.805   5.554  0.7938 -0.3299  0.7426
 6251SOL     OW18930   8.162   4.695   2.843 -0.4809  0.3602  0.5231
 6251SOL    HW118931   8.217   4.619   2.811  1.1287  1.6098  0.2119
 6251SOL    HW218932   8.088   4.712   2.778  0.3993  0.3844 -0.4945
 6252SOL     OW18933   4.768   0.228   3.635 -0.2462 -0.1379  0.1923
 6252SOL    HW118934   4.862   0.257   3.653 -0.0571 -0.3363 -0.4489
 6252SOL    HW218935   4.756   0.212   3.537 -0.3903 -2.0529  0.4791
 6253SOL     OW18936   3.536   1.846   8.173  0.0647 -0.2706  0.0636
 6253SOL    HW118937   3.539   1.806   8.081  0.5473  0.3904 -0.2163
 6253SOL    HW218938   3.591   1.929   8.174 -0.1077 -0.1666  0.9039
 6254SOL     OW18939   5.732   7.438   6.468  0.5350 -0.0629  0.5476
 6254SOL    HW118940   5.650   7.389   6.442 -0.4917  1.5137  0.6526
 6254SOL    HW218941   5.707   7.522   6.516  2.1217  1.4734 -1.1405
 6255SOL     OW18942   5.496   1.312   7.909 -0.2319  0.2044 -0.1220
 6255SOL    HW118943   5.444   1.352   7.984 -2.0292 -1.2263 -0.5421
 6255SOL    HW218944   5.557   1.241   7.944 -1.6661 -1.0333 -0.0618
 6256SOL     OW18945   1.587   5.037   1.848  1.0042 -0.1138 -0.4494
 6256SOL    HW118946   1.494   5.049   1.813  0.3864 -1.2266  0.7194
 6256SOL    HW218947   1.614   5.118   1.901 -0.0372 -0.5263  0.7556
 6257SOL     OW18948   5.030   6.467   1.115 -0.5157  0.0019  0.1273
 6257SOL    HW118949   4.937   6.462   1.151 -0.1812  0.9216  1.1620
 6257SOL    HW218950   5.085   6.395   1.156 -0.3902  0.4200  0.7030
 6258SOL     OW18951   4.027   7.427   0.685  0.8219  0.5258  0.3230
 6258SOL    HW118952   3.966   7.492   0.729  0.7136  0.1285  0.7676
 6258SOL    HW218953   4.102   7.404   0.746 -0.2744 -1.3871  1.0509
 6259SOL     OW18954   6.446   1.988   6.544  0.4547 -0.2261  0.5232
 6259SOL    HW118955   6.442   2.039   6.459 -0.6255 -0.2438  0.5476
 6259SOL    HW218956   6.426   1.891   6.526  0.2628 -0.2374  0.7804
 6260SOL     OW18957   8.272   7.840   3.531 -0.4794  0.8542 -0.3183
 6260SOL    HW118958   8.341   7.912   3.520  0.4941  0.0149  0.2271
 6260SOL    HW218959   8.313   7.751   3.510 -1.5999  0.4191 -0.7124
 6261SOL     OW18960   1.531   3.977   7.811  0.4356 -0.3009  0.1142
 6261SOL    HW118961   1.472   4.042   7.859  0.8841  0.5299 -0.4177
 6261SOL    HW218962   1.626   3.998   7.832  0.6736  0.4710 -1.5587
 6262SOL     OW18963   3.695   2.266   1.067  0.1228 -0.3970  0.3946
 6262SOL    HW118964   3.633   2.210   1.012 -0.7616 -0.1618  1.1196
 6262SOL    HW218965   3.712   2.353   1.021  0.9453 -0.9692 -0.4078
 6263SOL     OW18966   2.890   0.152   7.133  0.2262  0.3416  0.3742
 6263SOL    HW118967   2.914   0.086   7.205  1.7689  0.7946  0.3145
 6263SOL    HW218968   2.957   0.145   7.059 -0.2945  1.1550 -0.1833
 6264SOL     OW18969   6.810   0.793   1.458  0.1196 -0.0511  0.0148
 6264SOL    HW118970   6.837   0.804   1.553 -2.3810  0.3549  0.7595
 6264SOL    HW218971   6.831   0.875   1.406 -1.0714  0.8735  0.9447
 6265SOL     OW18972   5.161   2.373   5.032  0.5460  0.0985  0.2495
 6265SOL    HW118973   5.086   2.416   5.081  0.0317 -0.8584  0.3174
 6265SOL    HW218974   5.159   2.274   5.047  1.5505  0.0108 -0.1122
 6266SOL     OW18975   3.422   5.190   3.091  0.2650  0.8190 -0.4830
 6266SOL    HW118976   3.422   5.289   3.105  0.1083  0.8253 -0.5233
 6266SOL    HW218977   3.349   5.148   3.145  0.4187  0.7095 -0.3599
 6267SOL     OW18978   8.348   7.843   2.689 -0.8888 -0.2902  0.4573
 6267SOL    HW118979   8.409   7.819   2.765  0.9499  2.0440 -0.1538
 6267SOL    HW218980   8.339   7.943   2.685 -1.6115 -0.4090 -1.8835
 6268SOL     OW18981   8.255   3.707   4.757  0.5058 -0.3628  0.3272
 6268SOL    HW118982   8.175   3.765   4.764 -0.3019 -1.4438  0.2805
 6268SOL    HW218983   8.263   3.651   4.840  1.3512 -0.0963  0.4397
 6269SOL     OW18984   5.507   4.023   5.993  0.7280 -0.0248 -0.4220
 6269SOL    HW118985   5.464   3.962   5.926 -0.8801  0.3319  0.2466
 6269SOL    HW218986   5.474   4.116   5.979 -0.3835 -0.1108  1.4711
 6270SOL     OW18987   7.983   2.470   5.313  0.1199 -0.0370  0.4111
 6270SOL    HW118988   8.015   2.378   5.289  1.1314  0.1996  0.8015
 6270SOL    HW218989   7.914   2.499   5.247 -0.6340 -1.3055  0.6181
 6271SOL     OW18990   1.603   2.658   8.061 -0.4854  0.3970  0.1002
 6271SOL    HW118991   1.657   2.574   8.053 -1.6450 -0.2789 -0.7668
 6271SOL    HW218992   1.560   2.679   7.974 -2.0946  0.5958  0.9041
 6272SOL     OW18993   4.367   0.227   7.115  0.4803  0.0174 -0.1886
 6272SOL    HW118994   4.426   0.295   7.158  0.4238 -0.0743  0.0325
 6272SOL    HW218995   4.422   0.162   7.063  0.6800 -0.7506  0.9440
 6273SOL     OW18996   4.030   7.900   3.260 -0.7009  0.5704 -0.4292
 6273SOL    HW118997   4.077   7.872   3.176 -0.8518  0.2516 -0.4096
 6273SOL    HW218998   4.097   7.918   3.332 -0.6233 -0.4821 -0.2177
 6274SOL     OW18999   6.577   0.716   3.241  0.3497 -0.4243  0.8031
 6274SOL    HW119000   6.479   0.725   3.259 -0.0448 -1.0633 -0.8473
 6274SOL    HW219001   6.619   0.660   3.312 -0.8216 -1.5782  0.6240
 6275SOL     OW19002   0.482   0.095   1.767 -0.1560 -0.5961  0.3604
 6275SOL    HW119003   0.458   0.039   1.846 -2.3510 -0.2292  0.0292
 6275SOL    HW219004   0.403   0.151   1.741  1.5169  1.6533 -0.1610
 6276SOL     OW19005   8.347   4.794   0.555  0.1916  0.2070 -0.0245
 6276SOL    HW119006   8.327   4.858   0.481 -0.5519  0.8817  0.7282
 6276SOL    HW219007   8.411   4.725   0.524 -0.2421  0.3777 -1.3414
 6277SOL     OW19008   6.933   5.100   0.525  0.0786  0.5674 -0.0293
 6277SOL    HW119009   6.905   5.004   0.513 -0.9818  0.9987 -1.2905
 6277SOL    HW219010   6.976   5.111   0.615  1.1287 -1.2825 -0.2525
 6278SOL     OW19011   0.658   2.839   4.963 -0.0800 -0.1699  0.0163
 6278SOL    HW119012   0.575   2.837   5.018 -0.2055 -1.5354 -0.1796
 6278SOL    HW219013   0.738   2.838   5.024 -0.2101 -2.5301  0.2340
 6279SOL     OW19014   7.885   8.007   7.447  0.5269 -0.5904 -0.0683
 6279SOL    HW119015   7.961   8.007   7.512  1.1560  0.4585 -0.7855
 6279SOL    HW219016   7.802   7.973   7.492  0.6356  1.2783  1.6629
 6280SOL     OW19017   2.202   0.318   6.448 -0.0133 -0.8939 -0.2375
 6280SOL    HW119018   2.235   0.397   6.395  0.0251 -0.5146  0.3400
 6280SOL    HW219019   2.108   0.334   6.476 -0.2336 -1.3626 -0.6975
 6281SOL     OW19020   6.430   5.321   8.474 -0.5788  0.4886  0.5365
 6281SOL    HW119021   6.364   5.356   8.408  0.3750  0.6677 -0.3666
 6281SOL    HW219022   6.398   5.233   8.511 -1.2294  0.4860 -0.0149
 6282SOL     OW19023   1.348   5.968   5.287  0.1391  0.0202 -0.5064
 6282SOL    HW119024   1.324   6.025   5.366  2.2451 -1.7789  1.5936
 6282SOL    HW219025   1.427   6.008   5.240 -1.7473  1.6622 -2.5088
 6283SOL     OW19026   1.810   4.118   2.398  0.1188  0.0066 -0.0566
 6283SOL    HW119027   1.775   4.179   2.470  0.7138 -0.6144  0.7851
 6283SOL    HW219028   1.733   4.075   2.351 -0.2892  0.2976  0.3326
 6284SOL     OW19029   3.073   5.779   6.572 -0.0029  0.0416 -0.2122
 6284SOL    HW119030   3.065   5.709   6.502 -0.6429 -0.2076  0.0985
 6284SOL    HW219031   3.061   5.738   6.663 -1.1378  0.6406 -0.0622
 6285SOL     OW19032   4.480   0.589   5.445  0.0888  0.4722 -0.9625
 6285SOL    HW119033   4.579   0.596   5.433  0.1733 -0.1279 -0.6394
 6285SOL    HW219034   4.445   0.513   5.390  0.1011 -0.6103  0.4902
 6286SOL     OW19035   6.740   4.367   1.190  0.0828 -0.7492 -0.3621
 6286SOL    HW119036   6.740   4.444   1.126 -3.1952 -1.0953 -0.9914
 6286SOL    HW219037   6.769   4.284   1.143 -0.9135 -0.7265 -1.0458
 6287SOL     OW19038   2.804   1.694   2.496  0.2400  0.1185  0.1388
 6287SOL    HW119039   2.835   1.768   2.437 -1.6017  0.6556 -0.2147
 6287SOL    HW219040   2.705   1.683   2.488  0.2571 -1.3754  1.3490
 6288SOL     OW19041   8.269   6.452   6.133 -0.4687  0.3219 -0.2275
 6288SOL    HW119042   8.182   6.494   6.156 -0.5501  0.8621 -1.4959
 6288SOL    HW219043   8.292   6.471   6.038 -0.1011 -1.7816 -0.6056
 6289SOL     OW19044   6.965   3.509   4.060  0.5681  0.3231  0.4545
 6289SOL    HW119045   6.924   3.418   4.066  0.0037  0.6589  1.9645
 6289SOL    HW219046   7.044   3.514   4.121  0.5160  0.8974  0.4740
 6290SOL     OW19047   0.168   0.772   3.243 -0.6396 -0.0893 -0.0377
 6290SOL    HW119048   0.130   0.704   3.181  0.9731  0.6847 -1.9909
 6290SOL    HW219049   0.208   0.847   3.190  1.7808  0.1049  1.8899
 6291SOL     OW19050   1.762   4.454   1.958  0.1826  0.1517 -0.0026
 6291SOL    HW119051   1.804   4.373   1.917 -1.7640 -0.1435 -1.5741
 6291SOL    HW219052   1.821   4.534   1.943  2.8130 -1.0804  2.7781
 6292SOL     OW19053   2.570   2.979   0.464  0.0285  0.5546  0.0724
 6292SOL    HW119054   2.570   3.071   0.502 -1.5085  0.1017  1.2647
 6292SOL    HW219055   2.618   2.917   0.526 -1.4132  0.0482  0.7356
 6293SOL     OW19056   6.386   7.972   5.362 -0.0442 -0.2083  0.1679
 6293SOL    HW119057   6.426   7.934   5.279  1.2993 -2.1362  1.6089
 6293SOL    HW219058   6.286   7.970   5.355 -0.0120  1.4672 -2.1024
 6294SOL     OW19059   5.354   5.833   6.497 -0.0573  0.8893 -0.8066
 6294SOL    HW119060   5.373   5.931   6.488  1.2354  0.6785 -0.5930
 6294SOL    HW219061   5.407   5.782   6.430  2.7109  0.0262  1.7823
 6295SOL     OW19062   5.123   5.113   5.553 -0.0864 -0.9729 -0.3766
 6295SOL    HW119063   5.183   5.040   5.588  0.7673 -0.5379 -0.9220
 6295SOL    HW219064   5.028   5.080   5.554  0.0449 -1.4263  1.1625
 6296SOL     OW19065   0.189   4.100   3.630 -0.3388  0.0148  0.5074
 6296SOL    HW119066   0.214   4.057   3.717 -2.5339 -0.0246  1.1569
 6296SOL    HW219067   0.243   4.058   3.556  2.2327  0.6776  1.8877
 6297SOL     OW19068   5.938   5.745   2.791 -0.2423 -0.6550 -0.3244
 6297SOL    HW119069   6.035   5.757   2.770 -0.5889  0.6737 -1.3953
 6297SOL    HW219070   5.914   5.648   2.791  0.9832 -0.9647 -0.5451
 6298SOL     OW19071   4.811   7.679   8.848 -0.1552  0.2159  0.2057
 6298SOL    HW119072   4.753   7.688   8.929  1.1711 -0.7766  1.3133
 6298SOL    HW219073   4.905   7.700   8.873  0.4137 -0.9803 -0.8564
 6299SOL     OW19074   2.189   7.347   0.031  0.1059  0.1804 -0.0430
 6299SOL    HW119075   2.174   7.445   0.040  1.1100  0.2273  1.4320
 6299SOL    HW219076   2.258   7.317   0.096  0.5460 -1.3568 -1.1402
 6300SOL     OW19077   6.897   1.324   2.608 -0.2002 -0.0282  0.2346
 6300SOL    HW119078   6.899   1.409   2.556 -0.0319  0.3847  0.8972
 6300SOL    HW219079   6.947   1.337   2.694 -0.0019 -0.8568  0.2538
 6301SOL     OW19080   0.331   3.920   8.799  0.0879  0.1737  0.1782
 6301SOL    HW119081   0.351   4.004   8.850 -0.7155 -0.6531  1.9297
 6301SOL    HW219082   0.239   3.888   8.822  0.2690 -1.0325 -0.6904
 6302SOL     OW19083   5.814   6.913   2.654  0.2873 -0.0924  0.4522
 6302SOL    HW119084   5.888   6.933   2.590 -1.6200 -1.2728 -2.3322
 6302SOL    HW219085   5.800   6.991   2.715  1.6697  1.4674 -1.1181
 6303SOL     OW19086   5.986   6.512   4.440 -0.2341 -0.0159  0.3521
 6303SOL    HW119087   6.057   6.453   4.479 -2.0189 -3.1764 -0.8935
 6303SOL    HW219088   6.029   6.578   4.378  1.7392 -0.7110  0.8851
 6304SOL     OW19089   5.209   3.014   3.446 -0.2809  0.5179  0.1333
 6304SOL    HW119090   5.130   2.959   3.471  0.8290 -2.0023 -1.4682
 6304SOL    HW219091   5.272   3.020   3.523 -0.2444 -0.8163  0.2151
 6305SOL     OW19092   5.925   8.333   1.534  0.1298  0.5030  0.0945
 6305SOL    HW119093   5.928   8.274   1.453 -0.2387 -0.6435  0.8878
 6305SOL    HW219094   6.010   8.324   1.585  0.2444  1.0035  0.0020
 6306SOL     OW19095   3.800   2.453   4.400  0.0787  0.7077  0.6493
 6306SOL    HW119096   3.731   2.380   4.410 -2.9279  2.9004 -1.9481
 6306SOL    HW219097   3.783   2.524   4.469  1.5727  0.0728  1.7266
 6307SOL     OW19098   2.552   0.275   8.671  0.0763 -0.1194 -0.3429
 6307SOL    HW119099   2.599   0.342   8.729  0.4288 -1.4036  0.8974
 6307SOL    HW219100   2.464   0.313   8.641  0.3760  0.9833  0.1348
 6308SOL     OW19101   7.894   5.167   3.187  0.1693 -0.0563  0.1686
 6308SOL    HW119102   7.993   5.165   3.204  0.2318  1.6188  0.2548
 6308SOL    HW219103   7.850   5.222   3.259 -0.6847  0.0425 -0.4206
 6309SOL     OW19104   5.077   2.567   3.122  0.0849  0.5284  0.0105
 6309SOL    HW119105   5.166   2.576   3.077 -0.5995 -0.3114 -1.6033
 6309SOL    HW219106   5.048   2.472   3.119 -0.9475  0.8190  0.3720
 6310SOL     OW19107   0.476   6.622   4.387  0.1614  0.2101  0.3688
 6310SOL    HW119108   0.544   6.669   4.331  0.3212 -0.8984 -0.3991
 6310SOL    HW219109   0.387   6.626   4.342  0.3811 -1.0799 -0.2384
 6311SOL     OW19110   8.197   5.366   0.462  0.6673  0.2447 -0.4964
 6311SOL    HW119111   8.248   5.318   0.533  0.7850 -0.7734 -1.2540
 6311SOL    HW219112   8.100   5.369   0.486  0.8702  1.0098  0.2947
 6312SOL     OW19113   0.043   1.845   0.719 -0.2604 -0.5076  0.0219
 6312SOL    HW119114   0.058   1.746   0.718  0.7163 -0.3879  0.8531
 6312SOL    HW219115   0.057   1.880   0.812  0.4229  0.5529 -0.4523
 6313SOL     OW19116   8.534   4.232   8.761 -0.0624 -0.6505  0.4968
 6313SOL    HW119117   8.565   4.160   8.823  1.4609  0.3864  0.9925
 6313SOL    HW219118   8.435   4.238   8.764 -0.1248 -1.8212  1.4653
 6314SOL     OW19119   3.416   5.419   0.264  0.0296 -0.1679  0.2043
 6314SOL    HW119120   3.392   5.324   0.245  0.8700 -0.6208  1.3519
 6314SOL    HW219121   3.495   5.423   0.324  1.4694  1.2838 -1.6559
 6315SOL     OW19122   2.103   6.705   5.997 -0.5155 -0.2766  0.0728
 6315SOL    HW119123   2.156   6.767   5.938  0.4640  0.2799  1.4847
 6315SOL    HW219124   2.161   6.628   6.024 -1.3869 -1.2481 -0.7631
 6316SOL     OW19125   8.645   1.294   6.438 -0.0430 -0.1913 -0.2250
 6316SOL    HW119126   8.701   1.294   6.521 -0.1810 -0.9597 -0.1202
 6316SOL    HW219127   8.700   1.262   6.361 -0.3010 -0.8489 -0.1424
 6317SOL     OW19128   3.618   7.343   6.872  0.1369  0.0765 -0.1571
 6317SOL    HW119129   3.704   7.388   6.895  0.2228 -0.4086  0.4945
 6317SOL    HW219130   3.587   7.288   6.949 -0.0006 -0.9364 -0.9129
 6318SOL     OW19131   8.029   5.069   6.479 -0.0388  0.5078 -0.3792
 6318SOL    HW119132   8.124   5.038   6.475 -0.2079 -0.4331  1.7530
 6318SOL    HW219133   7.969   4.990   6.492 -0.7915  1.3696  1.7862
 6319SOL     OW19134   6.151   2.580   6.599  0.1789 -0.1098 -0.8197
 6319SOL    HW119135   6.122   2.666   6.557  0.1587  0.4915  0.3872
 6319SOL    HW219136   6.099   2.505   6.558 -1.1551  0.6493 -0.6095
 6320SOL     OW19137   7.020   3.399   6.580  0.4530 -0.1769 -0.3942
 6320SOL    HW119138   6.932   3.395   6.533  0.2345 -0.5268  0.0384
 6320SOL    HW219139   7.006   3.429   6.675  0.7605 -0.5782 -0.2219
 6321SOL     OW19140   0.943   5.050   3.410 -0.1020  0.0994 -0.3246
 6321SOL    HW119141   1.024   5.012   3.454  0.5081  0.5473 -1.0404
 6321SOL    HW219142   0.949   5.150   3.408 -0.5826  0.1310 -0.5425
 6322SOL     OW19143   2.765   8.353   5.641 -0.4336  0.3067 -0.5004
 6322SOL    HW119144   2.835   8.392   5.582  0.8371  0.2863  0.9375
 6322SOL    HW219145   2.786   8.257   5.659 -0.7602  0.3343  0.0470
 6323SOL     OW19146   4.210   2.501   5.637 -0.2649  0.1172  0.1597
 6323SOL    HW119147   4.199   2.410   5.676  3.6087 -0.4937  0.2114
 6323SOL    HW219148   4.248   2.563   5.707 -1.2765  1.3375 -0.3381
 6324SOL     OW19149   4.129   1.896   3.526 -0.4563 -0.0031 -0.1289
 6324SOL    HW119150   4.075   1.972   3.489 -1.3203 -0.5430  0.0116
 6324SOL    HW219151   4.082   1.858   3.605 -0.2277 -0.9597 -0.4493
 6325SOL     OW19152   3.712   8.565   6.358 -0.0269 -0.0326  0.5216
 6325SOL    HW119153   3.712   8.532   6.263  0.2274  0.3892  0.3749
 6325SOL    HW219154   3.742   8.492   6.418  0.0608 -0.2237  0.2487
 6326SOL     OW19155   7.193   5.864   2.808  0.6102 -0.0075 -0.2111
 6326SOL    HW119156   7.163   5.882   2.902  2.3100  0.8880  0.2014
 6326SOL    HW219157   7.285   5.901   2.795  0.0237  0.8103 -2.5394
 6327SOL     OW19158   3.267   1.602   1.854  0.3969  0.1949  0.4773
 6327SOL    HW119159   3.364   1.593   1.873  0.2720  0.8801  1.5055
 6327SOL    HW219160   3.247   1.568   1.762  1.5059 -0.4815  0.4800
 6328SOL     OW19161   4.386   7.103   6.824 -0.9688 -0.2889 -0.1371
 6328SOL    HW119162   4.362   7.013   6.788 -0.5496 -0.5012  0.1121
 6328SOL    HW219163   4.307   7.164   6.816 -0.9169 -0.3544 -1.3137
 6329SOL     OW19164   6.993   6.095   4.773  0.1079 -0.1837  0.3447
 6329SOL    HW119165   6.948   6.183   4.760 -3.0071 -1.7198 -0.1483
 6329SOL    HW219166   7.003   6.049   4.685  1.0602 -0.6383  0.6767
 6330SOL     OW19167   2.458   5.159   7.153  0.5266  0.1075  0.2945
 6330SOL    HW119168   2.508   5.090   7.206 -1.4039 -0.4557  1.5133
 6330SOL    HW219169   2.421   5.228   7.216  0.2021  0.7786 -0.6148
 6331SOL     OW19170   8.419   7.196   8.259 -0.5043 -0.1369  0.5412
 6331SOL    HW119171   8.420   7.127   8.331 -3.0334 -3.6411 -2.3865
 6331SOL    HW219172   8.474   7.164   8.182 -2.0883  0.8243 -1.0786
 6332SOL     OW19173   0.732   6.781   7.243  0.7577  0.0334  0.4519
 6332SOL    HW119174   0.647   6.758   7.195 -0.2465  4.0937 -0.0733
 6332SOL    HW219175   0.807   6.725   7.207 -0.7937 -0.2991 -2.5664
 6333SOL     OW19176   7.804   4.153   4.649  0.3070  0.4537 -0.8388
 6333SOL    HW119177   7.866   4.207   4.706 -0.2339  0.3768 -0.1606
 6333SOL    HW219178   7.769   4.075   4.702  3.5633 -2.5800 -2.6749
 6334SOL     OW19179   4.751   6.798   6.949  0.0247  0.4845  0.1250
 6334SOL    HW119180   4.671   6.831   6.999  1.0653  1.9051  0.9180
 6334SOL    HW219181   4.830   6.793   7.011  0.4972 -1.1952 -0.5562
 6335SOL     OW19182   1.766   1.490   6.048  0.2273 -0.0275 -0.5337
 6335SOL    HW119183   1.799   1.544   5.970  0.2770 -0.3779 -0.7587
 6335SOL    HW219184   1.807   1.525   6.132 -0.6909  1.0731 -0.5243
 6336SOL     OW19185   4.787   4.162   6.821 -0.2435  0.4429  0.1649
 6336SOL    HW119186   4.769   4.066   6.799  0.9997  0.2829 -0.2182
 6336SOL    HW219187   4.840   4.204   6.748  0.8596  0.8986  1.1974
 6337SOL     OW19188   1.569   2.981   6.423  0.2958 -0.3033 -0.6655
 6337SOL    HW119189   1.539   2.892   6.389  1.7537 -0.3270 -2.0560
 6337SOL    HW219190   1.493   3.028   6.467  0.0776 -3.3296  2.6770
 6338SOL     OW19191   2.591   8.392   0.749  0.6547 -0.2648  0.5469
 6338SOL    HW119192   2.511   8.348   0.789 -0.5297  0.0734 -1.3187
 6338SOL    HW219193   2.672   8.371   0.804 -0.7510 -0.2960  2.7036
 6339SOL     OW19194   2.681   7.421   7.720 -0.3401 -0.3278  0.0646
 6339SOL    HW119195   2.751   7.405   7.790 -3.9071 -0.1691  4.1538
 6339SOL    HW219196   2.632   7.336   7.702 -0.7506  0.0720 -0.7450
 6340SOL     OW19197   7.045   0.474   0.060 -0.8494 -0.1585  0.3799
 6340SOL    HW119198   7.040   0.567   0.097 -0.9276 -0.0008 -0.0177
 6340SOL    HW219199   7.011   0.474  -0.034  1.3043 -0.1355 -0.4546
 6341SOL     OW19200   4.557   1.163   1.405  0.3060 -0.0983 -0.2106
 6341SOL    HW119201   4.522   1.248   1.366 -1.4301  0.5616  2.4817
 6341SOL    HW219202   4.544   1.088   1.340  0.2923  1.3663 -1.9715
 6342SOL     OW19203   6.846   3.796   7.729 -1.0009  0.7469  0.1625
 6342SOL    HW119204   6.779   3.738   7.683 -1.0563 -1.4564  2.8291
 6342SOL    HW219205   6.937   3.774   7.696 -1.1792  0.4525 -0.1449
 6343SOL     OW19206   5.461   0.826   2.555  0.2736 -0.1276  0.3326
 6343SOL    HW119207   5.540   0.887   2.560  0.5673 -0.2753 -1.8340
 6343SOL    HW219208   5.398   0.858   2.484 -0.3951 -1.4127  0.3227
 6344SOL     OW19209   0.270   3.957   2.464  0.6015  0.2769 -0.0260
 6344SOL    HW119210   0.369   3.962   2.457  0.6648 -0.8402 -0.1790
 6344SOL    HW219211   0.231   3.931   2.376  0.1986  0.4225  0.1062
 6345SOL     OW19212   8.420   0.624   1.303  0.2478 -0.7478 -0.1751
 6345SOL    HW119213   8.489   0.571   1.352  0.6464  0.5877  0.7718
 6345SOL    HW219214   8.407   0.712   1.349 -1.6049 -0.6881 -0.7272
 6346SOL     OW19215   7.690   3.784   1.244  0.2161  0.2244 -0.0338
 6346SOL    HW119216   7.684   3.712   1.313  1.9117 -1.5020 -1.5511
 6346SOL    HW219217   7.768   3.843   1.264  0.8522 -0.4196 -0.5447
 6347SOL     OW19218   2.982   1.687   2.885 -0.0107  0.2375 -0.0412
 6347SOL    HW119219   2.885   1.698   2.907 -0.6553 -2.3159 -1.2145
 6347SOL    HW219220   3.023   1.621   2.947  0.8021  0.7170 -0.0502
 6348SOL     OW19221   3.887   1.796   8.513  0.1420  0.2762  0.1839
 6348SOL    HW119222   3.951   1.726   8.543  0.3676  1.0084  1.5291
 6348SOL    HW219223   3.797   1.778   8.554  0.5842  1.5862  1.8596
 6349SOL     OW19224   7.434   4.049   2.968 -0.4740  0.9214 -0.2245
 6349SOL    HW119225   7.424   3.993   2.886  0.4872  0.9600 -0.3766
 6349SOL    HW219226   7.445   4.145   2.943  1.0923  0.7866 -0.1327
 6350SOL     OW19227   1.997   1.748   8.142  0.7559 -0.3536 -0.0961
 6350SOL    HW119228   2.010   1.810   8.065 -1.1569 -0.5128 -0.5852
 6350SOL    HW219229   2.018   1.796   8.228 -1.3078  1.2421 -0.4030
 6351SOL     OW19230   5.146   6.980   1.302  0.1370  0.2428 -0.2899
 6351SOL    HW119231   5.210   6.935   1.364 -0.9414 -0.2807  0.4807
 6351SOL    HW219232   5.181   6.975   1.208  2.1212  1.6359  0.3042
 6352SOL     OW19233   5.648   5.573   2.385 -0.4615 -0.0095  0.3405
 6352SOL    HW119234   5.607   5.507   2.447 -1.4749 -0.2209 -0.5176
 6352SOL    HW219235   5.698   5.642   2.437 -0.1026 -0.9674  1.2907
 6353SOL     OW19236   8.427   3.969   8.405 -0.0588  0.4513  0.5083
 6353SOL    HW119237   8.426   3.881   8.357 -1.5007  0.2864  0.7973
 6353SOL    HW219238   8.492   3.965   8.481  0.0280 -0.3015  0.4012
 6354SOL     OW19239   4.248   3.363   6.540  0.5025 -0.0902  0.0047
 6354SOL    HW119240   4.204   3.277   6.567 -1.8568  1.4035  1.3135
 6354SOL    HW219241   4.255   3.424   6.620  1.0461  1.3681 -1.0991
 6355SOL     OW19242   5.442   5.215   8.390 -0.2135 -0.9563  0.6754
 6355SOL    HW119243   5.391   5.131   8.373 -1.3237  0.0893 -1.6319
 6355SOL    HW219244   5.411   5.257   8.475 -2.0669 -1.2181  0.1764
 6356SOL     OW19245   1.885   0.138   6.262  0.2184  0.1882  0.2577
 6356SOL    HW119246   1.813   0.205   6.245  0.1303  0.3051  1.0662
 6356SOL    HW219247   1.844   0.049   6.279  0.3644 -0.2737 -1.6385
 6357SOL     OW19248   7.046   1.875   2.202 -0.6283 -0.0062 -0.2056
 6357SOL    HW119249   6.979   1.850   2.272 -1.0997  0.4543 -0.4834
 6357SOL    HW219250   7.129   1.821   2.214 -0.9426 -0.3771  0.3216
 6358SOL     OW19251   2.304   2.689   5.152 -0.7527  0.7543  0.4934
 6358SOL    HW119252   2.229   2.666   5.090 -1.1596  0.2792  1.1442
 6358SOL    HW219253   2.269   2.743   5.228 -0.4775  0.3860  0.8904
 6359SOL     OW19254   5.249   7.360   2.534 -0.4218 -0.6155 -0.5729
 6359SOL    HW119255   5.175   7.395   2.591 -1.2244 -0.5098 -1.6423
 6359SOL    HW219256   5.322   7.429   2.529 -0.8010 -0.1985 -0.4855
 6360SOL     OW19257   0.930   4.218   7.349  0.0305  0.8017  0.1029
 6360SOL    HW119258   0.982   4.256   7.425  2.1361  0.1445 -0.9266
 6360SOL    HW219259   0.942   4.275   7.268 -1.5551  1.0712  0.0168
 6361SOL     OW19260   5.545   3.782   6.610 -0.5542  0.4694  0.3886
 6361SOL    HW119261   5.591   3.782   6.698  0.8565  2.6383 -0.2715
 6361SOL    HW219262   5.603   3.739   6.541 -1.0178  0.1123  0.2084
 6362SOL     OW19263   1.271   8.794   5.248  0.2626 -0.0729  0.2168
 6362SOL    HW119264   1.206   8.820   5.176  0.1979 -2.5782 -0.7414
 6362SOL    HW219265   1.346   8.860   5.250 -1.0673  1.5299 -0.2954
 6363SOL     OW19266   2.046   2.072   6.617  0.3869 -0.6339  0.0575
 6363SOL    HW119267   1.973   2.019   6.661 -0.3667 -1.3809 -1.9962
 6363SOL    HW219268   2.135   2.030   6.638  0.3249  0.4306  2.7884
 6364SOL     OW19269   8.575   5.527   5.820  0.4282  0.1687  0.5546
 6364SOL    HW119270   8.577   5.594   5.746  0.7971  0.1623  0.5578
 6364SOL    HW219271   8.667   5.493   5.838 -0.1023 -3.1014 -1.9451
 6365SOL     OW19272   0.612   8.596   3.429 -0.5556 -0.6524 -0.2211
 6365SOL    HW119273   0.556   8.545   3.365  0.5201  0.5388 -2.2110
 6365SOL    HW219274   0.554   8.647   3.492 -1.6601 -0.8651 -1.0502
 6366SOL     OW19275   1.845   2.630   7.221  0.0079  0.2232  0.5171
 6366SOL    HW119276   1.920   2.577   7.182  0.7908 -0.1108  2.3793
 6366SOL    HW219277   1.758   2.598   7.183  0.7285  0.2032 -1.2129
 6367SOL     OW19278   4.634   2.072   3.295 -0.5727 -0.1576  0.2282
 6367SOL    HW119279   4.565   2.016   3.341 -3.2943  1.5386 -1.5311
 6367SOL    HW219280   4.647   2.039   3.201 -0.0519  0.4189  0.0891
 6368SOL     OW19281   6.186   6.569   8.266 -0.7556 -0.9707  0.1962
 6368SOL    HW119282   6.244   6.488   8.274  2.0147  0.8731  0.2967
 6368SOL    HW219283   6.177   6.594   8.169  0.3306 -0.1721  0.2782
 6369SOL     OW19284   4.781   4.996   3.113  0.1136 -0.0462 -0.1109
 6369SOL    HW119285   4.768   5.033   3.205 -0.4344 -0.6625  0.0661
 6369SOL    HW219286   4.740   5.059   3.047  1.9722  1.2560 -0.1103
 6370SOL     OW19287   3.437   8.693   2.844  0.2951 -0.6257 -0.0386
 6370SOL    HW119288   3.358   8.738   2.885  1.2654 -0.0691  1.2839
 6370SOL    HW219289   3.484   8.637   2.913  1.7359  0.0116 -0.4669
 6371SOL     OW19290   7.809   1.624   1.024  0.2944  0.1401 -0.5274
 6371SOL    HW119291   7.867   1.672   1.091  0.3466  0.0476 -0.5059
 6371SOL    HW219292   7.740   1.571   1.073 -0.4132  1.0110 -0.5762
 6372SOL     OW19293   3.705   2.322   7.873 -0.8326  0.4474  0.3491
 6372SOL    HW119294   3.789   2.268   7.876 -0.7696  0.5334  0.1642
 6372SOL    HW219295   3.636   2.272   7.821 -1.2802 -0.1533  1.5089
 6373SOL     OW19296   2.169   1.537   7.198  0.0277 -0.2297 -0.2805
 6373SOL    HW119297   2.244   1.488   7.244  0.1498  0.7132  0.5776
 6373SOL    HW219298   2.194   1.554   7.103  0.9169  0.0572 -0.0100
 6374SOL     OW19299   1.548   5.849   5.643  0.3255 -0.4069  0.2866
 6374SOL    HW119300   1.516   5.941   5.623  0.1073 -0.1099  1.8619
 6374SOL    HW219301   1.498   5.783   5.587  0.0945  0.3823 -0.4573
 6375SOL     OW19302   4.748   7.195   8.335  0.2383  0.2515 -0.0943
 6375SOL    HW119303   4.686   7.222   8.261  0.2889  0.1680 -0.1680
 6375SOL    HW219304   4.724   7.103   8.367 -1.1196  1.0946  1.4223
 6376SOL     OW19305   3.616   6.974   4.393  0.3268  0.1753  0.1337
 6376SOL    HW119306   3.644   6.923   4.474  2.0245 -0.0137 -0.5348
 6376SOL    HW219307   3.638   7.071   4.405  0.8957  0.0942 -0.2214
 6377SOL     OW19308   5.149   0.739   0.904 -0.0426  0.5055  0.4610
 6377SOL    HW119309   5.168   0.643   0.884 -2.1951  0.3530 -1.1701
 6377SOL    HW219310   5.231   0.782   0.943  1.1028 -1.8458  0.8129
 6378SOL     OW19311   2.352   3.945   4.725 -0.4462 -0.3663 -0.0949
 6378SOL    HW119312   2.318   3.853   4.706  0.0414 -0.4823 -0.4131
 6378SOL    HW219313   2.329   3.970   4.819 -1.1571 -0.5534 -0.2100
 6379SOL     OW19314   6.664   4.725   8.689 -0.1337 -0.4617 -0.4038
 6379SOL    HW119315   6.717   4.667   8.751 -1.6591  0.4032  1.8593
 6379SOL    HW219316   6.719   4.748   8.609  1.3640 -2.9770 -0.2117
 6380SOL     OW19317   7.268   6.050   7.693  0.0242  0.0796  0.1322
 6380SOL    HW119318   7.353   6.071   7.646  0.7888  0.4680  1.6131
 6380SOL    HW219319   7.193   6.046   7.627  1.2908 -1.0218 -1.3051
 6381SOL     OW19320   4.814   3.004   1.543  0.0230  0.0209  0.4177
 6381SOL    HW119321   4.715   3.000   1.531  0.1552 -0.3835 -0.7466
 6381SOL    HW219322   4.836   3.015   1.639 -1.1287 -1.2380  0.8650
 6382SOL     OW19323   7.347   3.364   1.128 -0.2564 -0.1011 -0.2425
 6382SOL    HW119324   7.330   3.361   1.029 -0.6214 -1.6006 -0.1615
 6382SOL    HW219325   7.275   3.415   1.173 -0.6155 -0.2372 -0.6601
 6383SOL     OW19326   7.762   3.073   4.600 -0.8755  0.4299 -0.6577
 6383SOL    HW119327   7.819   3.103   4.677 -2.5643  1.8554  0.0983
 6383SOL    HW219328   7.799   2.988   4.563  0.4564  0.1281  1.2052
 6384SOL     OW19329   7.416   4.983   1.111 -0.3191  0.8253  0.5159
 6384SOL    HW119330   7.439   4.911   1.045 -2.0975  0.9288 -0.2855
 6384SOL    HW219331   7.434   5.073   1.071 -3.2635  0.9816 -0.7660
 6385SOL     OW19332   6.513   3.016   8.576 -0.0113  0.9071  0.5234
 6385SOL    HW119333   6.608   3.004   8.607  0.7198  1.4339 -1.3887
 6385SOL    HW219334   6.456   3.043   8.654  1.6804  1.9381  1.4634
 6386SOL     OW19335   8.370   3.302   6.842  0.0421 -0.2504  0.2578
 6386SOL    HW119336   8.443   3.313   6.774 -0.7081  2.0085 -0.2828
 6386SOL    HW219337   8.401   3.338   6.930 -0.2989  0.4598  0.0961
 6387SOL     OW19338   3.108   5.770   8.194 -0.0263  0.0788 -0.4806
 6387SOL    HW119339   3.061   5.832   8.131  0.5155  2.7598  1.5393
 6387SOL    HW219340   3.046   5.747   8.270 -0.0930 -1.6128 -1.0185
 6388SOL     OW19341   7.795   3.972   0.680 -0.7716 -0.8497  0.1923
 6388SOL    HW119342   7.878   3.927   0.647  0.4297  0.8246  0.8374
 6388SOL    HW219343   7.766   3.929   0.766 -1.1713 -2.0718 -0.5208
 6389SOL     OW19344   2.708   5.378   0.269 -0.2719 -0.4836  0.4436
 6389SOL    HW119345   2.696   5.314   0.344 -2.4093  1.1297  1.5887
 6389SOL    HW219346   2.689   5.331   0.182 -0.7433 -1.6522  1.1515
 6390SOL     OW19347   8.528   6.935   8.108 -0.1871  0.0538  0.0789
 6390SOL    HW119348   8.574   6.934   8.019 -0.8607  0.2689 -0.2726
 6390SOL    HW219349   8.586   6.889   8.176 -0.3959 -1.6176 -0.8253
 6391SOL     OW19350   8.183   0.997   7.669  0.3535 -0.0948  0.1899
 6391SOL    HW119351   8.140   1.062   7.606  0.0530 -1.8124 -1.5053
 6391SOL    HW219352   8.218   1.045   7.749 -1.9819  1.7906  0.1867
 6392SOL     OW19353   7.675   1.874   4.035 -0.0790  0.2245  0.0265
 6392SOL    HW119354   7.772   1.858   4.016  0.0476 -0.2692  0.9691
 6392SOL    HW219355   7.642   1.801   4.095 -0.8952  0.6806  0.1348
 6393SOL     OW19356   4.170   4.161   0.910 -0.4061  0.9683  0.0964
 6393SOL    HW119357   4.098   4.229   0.896 -0.1405  0.9738 -1.4117
 6393SOL    HW219358   4.258   4.207   0.916 -0.3253  0.8292 -0.0144
 6394SOL     OW19359   6.623   4.697   5.971  0.4061  0.4679  0.4564
 6394SOL    HW119360   6.617   4.796   5.970  0.9748  0.5251 -2.1231
 6394SOL    HW219361   6.710   4.669   6.011  0.4615  1.0166  0.7220
 6395SOL     OW19362   7.148   5.204   1.855 -0.2496 -0.1750  0.2844
 6395SOL    HW119363   7.093   5.243   1.929  0.3620  0.0245  0.6406
 6395SOL    HW219364   7.234   5.169   1.892 -0.4487 -1.1651 -0.1512
 6396SOL     OW19365   7.771   0.780   1.873  0.3809  0.0817 -0.2885
 6396SOL    HW119366   7.729   0.832   1.947  0.0208  0.1398 -0.5338
 6396SOL    HW219367   7.725   0.802   1.787  1.5612  0.9428 -0.7340
 6397SOL     OW19368   4.560   3.095   6.657 -0.1335 -0.0042 -0.4058
 6397SOL    HW119369   4.465   3.067   6.671 -0.0351 -0.7891 -1.2084
 6397SOL    HW219370   4.568   3.146   6.571  0.2766 -0.5368 -0.6951
 6398SOL     OW19371   8.099   0.154   1.046  0.4630  0.1415  0.3778
 6398SOL    HW119372   8.152   0.086   0.995 -0.4205 -0.3127  0.0337
 6398SOL    HW219373   8.061   0.111   1.128  0.5597  0.4432  0.5818
 6399SOL     OW19374   5.986   8.429   8.588 -0.5554 -0.3009  0.6272
 6399SOL    HW119375   6.068   8.373   8.603  0.7179  0.8775 -1.4587
 6399SOL    HW219376   5.973   8.491   8.666 -0.7969 -1.9771  1.9972
 6400SOL     OW19377   7.076   4.679   4.352  0.2242 -0.3135  0.6307
 6400SOL    HW119378   7.034   4.605   4.403  0.2284 -0.1795  0.8320
 6400SOL    HW219379   7.170   4.693   4.384 -0.0658  0.3687  1.2297
 6401SOL     OW19380   2.302   8.726   8.836 -0.5641  1.1166  0.4235
 6401SOL    HW119381   2.342   8.635   8.844 -0.3292  1.0978 -0.8657
 6401SOL    HW219382   2.210   8.726   8.876 -0.7030  0.2262  0.1111
 6402SOL     OW19383   1.073   3.796   7.448 -0.5679  0.4125  0.3164
 6402SOL    HW119384   1.029   3.869   7.398 -0.3766  1.0567  1.0621
 6402SOL    HW219385   1.135   3.746   7.387 -1.7481 -0.0364 -0.5461
 6403SOL     OW19386   8.181   3.792   3.487  0.0736 -0.1730 -0.0708
 6403SOL    HW119387   8.209   3.762   3.579 -1.9766  3.6000  1.9994
 6403SOL    HW219388   8.105   3.735   3.455  0.0799 -0.8414  1.0550
 6404SOL     OW19389   6.570   7.663   8.503 -0.1141  0.1975 -0.5228
 6404SOL    HW119390   6.562   7.761   8.489  1.2574  0.4347  0.2525
 6404SOL    HW219391   6.655   7.630   8.463 -0.4950 -0.6667 -0.6582
 6405SOL     OW19392   1.747   8.317   8.822 -0.0514 -0.1459 -0.0037
 6405SOL    HW119393   1.687   8.391   8.849 -1.1042 -0.6240 -0.9631
 6405SOL    HW219394   1.738   8.241   8.887  0.3864  0.2205  0.4941
 6406SOL     OW19395   5.868   1.271   0.215  0.0849 -0.4241 -0.0898
 6406SOL    HW119396   5.959   1.238   0.240  1.4741  2.3595 -1.0845
 6406SOL    HW219397   5.835   1.334   0.286  0.2199  0.7904 -1.0866
 6407SOL     OW19398   6.116   6.444   6.442  0.1554  0.2010  0.3242
 6407SOL    HW119399   6.205   6.487   6.427 -0.0553 -0.1904 -2.6004
 6407SOL    HW219400   6.117   6.351   6.405 -1.3159  0.0247  0.6721
 6408SOL     OW19401   3.461   6.111   7.764 -0.6151  0.1612 -0.1593
 6408SOL    HW119402   3.449   6.012   7.760 -1.3823  0.1320  1.5693
 6408SOL    HW219403   3.392   6.155   7.706 -1.1860 -0.3060  0.1459
 6409SOL     OW19404   3.128   3.902   2.313 -0.5040 -0.5122 -0.3393
 6409SOL    HW119405   3.095   3.995   2.330  0.6309 -0.3519  1.2403
 6409SOL    HW219406   3.216   3.906   2.267 -1.0043 -0.8442 -1.3308
 6410SOL     OW19407   7.661   0.005   5.395  0.4753 -0.3824  0.5040
 6410SOL    HW119408   7.583  -0.010   5.456 -0.5782 -2.9167 -1.2684
 6410SOL    HW219409   7.643   0.083   5.336 -0.2935 -0.3761  0.7346
 6411SOL     OW19410   8.359   3.087   5.120 -0.4172  0.3508  0.0698
 6411SOL    HW119411   8.394   3.107   5.211 -0.1206  0.7512 -0.1286
 6411SOL    HW219412   8.302   3.163   5.088  1.3612  1.2931 -1.0075
 6412SOL     OW19413   1.226   2.564   7.966  0.2943 -0.0332  0.4722
 6412SOL    HW119414   1.223   2.468   7.994 -1.3517 -0.1523 -0.0164
 6412SOL    HW219415   1.164   2.579   7.889 -0.8210  1.7420  1.6350
 6413SOL     OW19416   2.447   4.500   5.142 -0.2233 -0.7289 -0.5684
 6413SOL    HW119417   2.430   4.448   5.225 -0.4462 -1.2040 -0.9129
 6413SOL    HW219418   2.513   4.451   5.084 -0.3065 -0.5505 -0.8157
 6414SOL     OW19419   1.503   4.183   7.021 -0.1790  0.0477  0.2002
 6414SOL    HW119420   1.407   4.168   6.999  0.4353 -1.7209 -1.6557
 6414SOL    HW219421   1.544   4.096   7.048  1.3751  0.3074 -1.1853
 6415SOL     OW19422   0.574   2.074   5.516  0.2016  0.2164  0.2924
 6415SOL    HW119423   0.530   1.995   5.559 -0.4994  0.6087  0.3020
 6415SOL    HW219424   0.557   2.072   5.418 -1.0098  1.0837  0.4561
 6416SOL     OW19425   1.172   2.963   5.030  0.5713 -0.3545  0.2979
 6416SOL    HW119426   1.147   3.037   5.092  2.4841  0.8100 -0.2694
 6416SOL    HW219427   1.138   2.983   4.938  0.2449 -0.6843  0.3405
 6417SOL     OW19428   8.165   5.392   5.785 -0.9985  0.1952  0.4397
 6417SOL    HW119429   8.181   5.465   5.852  1.5335 -1.1289  1.3998
 6417SOL    HW219430   8.248   5.376   5.732 -2.0551 -0.8221 -0.9879
 6418SOL     OW19431   7.240   7.771   3.179 -0.1087 -1.0246 -0.3456
 6418SOL    HW119432   7.293   7.848   3.144  0.2775 -0.5987  1.1236
 6418SOL    HW219433   7.301   7.703   3.219 -0.4878 -1.8627 -1.1305
 6419SOL     OW19434   0.653   2.609   4.828  0.6320 -0.1759  0.1862
 6419SOL    HW119435   0.582   2.608   4.758 -0.9985  0.3456  1.7700
 6419SOL    HW219436   0.649   2.695   4.878  3.6181  0.6877 -0.8314
 6420SOL     OW19437   5.123   7.261   1.583 -0.3867  0.4278 -0.6274
 6420SOL    HW119438   5.179   7.320   1.642 -0.1751 -1.5570  1.2617
 6420SOL    HW219439   5.174   7.178   1.560 -1.3976  0.0474 -1.5644
 6421SOL     OW19440   2.707   1.387   1.390 -0.0389  0.0531 -0.1056
 6421SOL    HW119441   2.795   1.432   1.377 -0.3502  0.5416 -0.6015
 6421SOL    HW219442   2.635   1.457   1.392 -0.6377 -0.4823 -1.8557
 6422SOL     OW19443   2.614   3.214   0.605 -0.4621 -0.3546 -0.3073
 6422SOL    HW119444   2.665   3.160   0.673 -0.1490 -1.1271 -1.1401
 6422SOL    HW219445   2.621   3.311   0.628  1.6318 -0.4107 -0.5505
 6423SOL     OW19446   6.889   1.572   7.663 -0.3681 -0.0264  0.9360
 6423SOL    HW119447   6.838   1.630   7.726 -2.2744 -3.5183  2.9343
 6423SOL    HW219448   6.838   1.487   7.646  2.2910 -1.3353 -1.5555
 6424SOL     OW19449   7.587   4.465   4.732 -0.0532 -0.0142  0.2862
 6424SOL    HW119450   7.524   4.542   4.721 -1.0803 -0.9094 -0.3062
 6424SOL    HW219451   7.586   4.409   4.649  0.2973 -0.9352  0.8905
 6425SOL     OW19452   5.206   4.016   5.158  0.5219  0.1626  0.9141
 6425SOL    HW119453   5.234   4.014   5.254 -0.6646  2.0730  1.3415
 6425SOL    HW219454   5.238   4.100   5.115 -0.4338  0.1441  0.1223
 6426SOL     OW19455   1.931   5.470   5.159  0.2116 -0.2004  0.5456
 6426SOL    HW119456   1.894   5.428   5.242  0.5667 -1.6071  0.0262
 6426SOL    HW219457   1.933   5.402   5.085  0.2912  0.9020 -0.5041
 6427SOL     OW19458   1.525   6.612   7.855  0.7160  0.7011  0.0920
 6427SOL    HW119459   1.447   6.657   7.898  0.6597  1.4812 -0.7880
 6427SOL    HW219460   1.527   6.636   7.758  0.9432 -0.8599 -0.3107
 6428SOL     OW19461   7.046   2.507   1.507 -0.1655  0.1938 -0.8008
 6428SOL    HW119462   7.027   2.592   1.555 -0.2334 -0.6259  0.6761
 6428SOL    HW219463   6.985   2.435   1.540  2.2116 -1.3125  0.6006
 6429SOL     OW19464   2.624   7.292   2.778  0.4416  0.0732  0.6937
 6429SOL    HW119465   2.720   7.317   2.786  0.3779  0.6488 -0.1478
 6429SOL    HW219466   2.608   7.247   2.690 -0.1455  0.4752  0.5807
 6430SOL     OW19467   2.309   1.444   8.091  0.3607  0.0274  0.0866
 6430SOL    HW119468   2.270   1.461   8.001  2.3842 -0.7474 -0.9999
 6430SOL    HW219469   2.242   1.396   8.148 -1.1034  0.9217 -0.8101
 6431SOL     OW19470   7.355   4.708   1.792  0.7663 -0.1067 -0.1551
 6431SOL    HW119471   7.258   4.702   1.766  1.1006  1.4404 -1.9464
 6431SOL    HW219472   7.395   4.616   1.790 -0.4192 -0.6433 -0.3617
 6432SOL     OW19473   5.049   7.234   7.080  0.5620  0.0664 -0.0645
 6432SOL    HW119474   5.143   7.210   7.055 -0.2958 -3.3334 -0.4671
 6432SOL    HW219475   4.988   7.212   7.004 -0.7658  0.6929  0.7869
 6433SOL     OW19476   4.051   6.829   5.748 -0.4227 -0.3156 -0.0340
 6433SOL    HW119477   4.050   6.857   5.844 -0.8393 -0.8814  0.1362
 6433SOL    HW219478   4.082   6.734   5.742 -0.7352 -0.3921 -0.4269
 6434SOL     OW19479   1.407   4.482   7.678 -0.0733  0.1777 -0.2538
 6434SOL    HW119480   1.413   4.383   7.690 -0.4485  0.2519  0.6540
 6434SOL    HW219481   1.395   4.503   7.581 -1.4124 -0.7408 -0.3083
 6435SOL     OW19482   7.641   5.104   6.259  0.1436  0.1679  0.3131
 6435SOL    HW119483   7.690   5.177   6.306 -1.1249 -0.1557  2.2242
 6435SOL    HW219484   7.545   5.106   6.286 -0.4857 -0.5239 -1.7255
 6436SOL     OW19485   4.842   4.537   5.820 -0.2727 -0.2090  0.1387
 6436SOL    HW119486   4.786   4.455   5.806 -0.0320 -0.6337  1.4795
 6436SOL    HW219487   4.805   4.612   5.765 -0.4583 -1.2113 -1.1746
 6437SOL     OW19488   5.382   1.694   1.164 -0.2752  0.4192 -0.1758
 6437SOL    HW119489   5.394   1.669   1.068 -0.1959 -0.3426  0.0252
 6437SOL    HW219490   5.459   1.749   1.194 -0.4770  0.9648 -0.6481
 6438SOL     OW19491   5.775   4.247   6.496 -0.4811 -0.1573  0.4087
 6438SOL    HW119492   5.695   4.306   6.499 -0.4526  0.0387 -1.6228
 6438SOL    HW219493   5.857   4.302   6.510 -0.3074  0.7385 -3.1913
 6439SOL     OW19494   5.094   1.282   1.738 -0.3957 -0.1041  0.7277
 6439SOL    HW119495   5.067   1.364   1.688  1.0807 -0.8511 -1.4351
 6439SOL    HW219496   5.012   1.230   1.764 -1.2361  0.5447 -0.5592
 6440SOL     OW19497   1.403   5.704   6.047 -0.5080  0.3010 -0.4706
 6440SOL    HW119498   1.453   5.640   5.989  0.6920  0.8007 -0.0114
 6440SOL    HW219499   1.340   5.653   6.106 -0.1612 -0.3862 -0.6829
 6441SOL     OW19500   6.966   8.424   8.761 -0.0963 -0.0216  0.6879
 6441SOL    HW119501   6.975   8.467   8.671  0.6685  0.0227  0.7784
 6441SOL    HW219502   6.913   8.484   8.821 -3.5213 -1.4557 -0.6331
 6442SOL     OW19503   0.153   8.799   2.105 -0.3064  0.5003 -0.2513
 6442SOL    HW119504   0.243   8.839   2.092 -0.3074  0.9682  1.0054
 6442SOL    HW219505   0.087   8.842   2.044 -0.0406  1.4810  0.1353
 6443SOL     OW19506   0.859   3.820   5.059  0.2786 -0.3171  0.2024
 6443SOL    HW119507   0.825   3.904   5.016 -1.5415 -1.1626 -0.1251
 6443SOL    HW219508   0.809   3.742   5.023  0.1327 -1.2847  2.3203
 6444SOL     OW19509   4.593   0.305   5.537 -0.4601  0.3918 -0.3621
 6444SOL    HW119510   4.507   0.254   5.530 -0.0978 -0.1688 -0.8181
 6444SOL    HW219511   4.576   0.402   5.516 -0.8425  0.1404 -1.2684
 6445SOL     OW19512   0.815   0.878   5.879 -0.0362 -0.3936 -0.1679
 6445SOL    HW119513   0.835   0.912   5.787 -0.0606 -0.5527 -0.2331
 6445SOL    HW219514   0.834   0.780   5.883  1.2796 -0.1271  0.3929
 6446SOL     OW19515   2.547   1.792   4.855 -0.1180  0.6021 -0.1936
 6446SOL    HW119516   2.465   1.818   4.805  0.3464  0.5780 -0.9829
 6446SOL    HW219517   2.561   1.855   4.931 -1.3233  0.1130  0.4713
 6447SOL     OW19518   1.526   5.226   3.612 -0.5315  0.0186  0.4733
 6447SOL    HW119519   1.584   5.147   3.631  0.5147  0.6818  0.0780
 6447SOL    HW219520   1.448   5.197   3.557 -0.5168 -0.8556  0.8905
 6448SOL     OW19521   1.506   4.100   1.826  0.5207 -0.0411  0.3946
 6448SOL    HW119522   1.406   4.092   1.819  0.4273  1.4649 -0.3201
 6448SOL    HW219523   1.549   4.034   1.764  0.0524 -2.0682  2.0856
 6449SOL     OW19524   1.357   4.852   4.381 -0.2692  0.5772  0.2709
 6449SOL    HW119525   1.321   4.940   4.411 -2.2663 -0.2526  0.4658
 6449SOL    HW219526   1.418   4.866   4.303  0.8104  2.2595  1.3445
 6450SOL     OW19527   2.495   7.207   2.156 -0.1631  0.4031 -0.2079
 6450SOL    HW119528   2.495   7.114   2.192 -2.8070  0.4007 -0.0675
 6450SOL    HW219529   2.501   7.205   2.057  1.9800  0.2300 -0.1303
 6451SOL     OW19530   2.415   6.485   3.958  0.1101 -0.2981  0.1975
 6451SOL    HW119531   2.494   6.445   4.004  0.3874 -4.0043 -2.9931
 6451SOL    HW219532   2.337   6.422   3.965 -0.6070  0.2525 -2.0015
 6452SOL     OW19533   0.387   2.148   7.063  0.5345  0.4986  0.0687
 6452SOL    HW119534   0.407   2.185   7.153 -1.3341 -2.0239  1.6394
 6452SOL    HW219535   0.305   2.191   7.025  0.8087  0.9282 -0.0409
 6453SOL     OW19536   2.522   1.894   2.246  0.0671 -0.3797  0.2995
 6453SOL    HW119537   2.434   1.858   2.215 -0.0544  0.1602  0.0120
 6453SOL    HW219538   2.516   1.993   2.256  0.6154 -0.3521  0.3800
 6454SOL     OW19539   3.925   8.346   4.277  0.3264  0.5897 -0.5852
 6454SOL    HW119540   3.848   8.292   4.243  0.7014 -0.6592  0.4234
 6454SOL    HW219541   3.991   8.285   4.321  1.1928  1.7985 -0.1476
 6455SOL     OW19542   3.529   2.013   8.587  0.3356  0.0297  0.2902
 6455SOL    HW119543   3.498   2.037   8.680  1.3173  2.0222  0.1341
 6455SOL    HW219544   3.456   2.032   8.522 -0.2249 -1.0313  0.5773
 6456SOL     OW19545   4.143   8.245   5.149  0.3951 -0.3578  0.6943
 6456SOL    HW119546   4.070   8.186   5.185  0.2573 -0.4364  0.2933
 6456SOL    HW219547   4.208   8.266   5.222 -1.7039  2.3576  1.9539
 6457SOL     OW19548   5.967   5.235   7.250 -0.1317 -0.4538  0.3258
 6457SOL    HW119549   6.053   5.203   7.211  0.5563  0.7425  0.7973
 6457SOL    HW219550   5.892   5.216   7.187  0.7328  0.0835 -0.8894
 6458SOL     OW19551   6.624   8.354   7.652 -0.1798 -0.1400 -0.9003
 6458SOL    HW119552   6.571   8.272   7.631 -2.1660  0.6231  0.7166
 6458SOL    HW219553   6.658   8.348   7.746 -1.3522  1.3203 -0.3421
 6459SOL     OW19554   5.240   4.061   8.478  0.3548 -0.7668 -0.1286
 6459SOL    HW119555   5.170   3.998   8.445 -0.2660 -0.6444  0.9049
 6459SOL    HW219556   5.295   4.094   8.401  0.4161 -2.2210 -0.7388
 6460SOL     OW19557   2.749   0.911   1.906 -0.3903 -0.1515 -0.1350
 6460SOL    HW119558   2.656   0.944   1.889 -0.1327  0.1816 -0.9538
 6460SOL    HW219559   2.747   0.838   1.974 -1.1358  0.5645  0.6277
 6461SOL     OW19560   8.447   5.134   2.753 -0.6583  0.1109  0.0431
 6461SOL    HW119561   8.523   5.135   2.819 -1.2975  1.6692  0.7871
 6461SOL    HW219562   8.456   5.211   2.690 -1.1948 -0.1774 -0.3988
 6462SOL     OW19563   7.434   3.643   7.128 -0.2842  0.3386  0.1652
 6462SOL    HW119564   7.513   3.596   7.166 -1.3172 -2.4627 -0.9041
 6462SOL    HW219565   7.455   3.676   7.036 -0.2061  0.0649  0.0855
 6463SOL     OW19566   8.550   5.480   5.495 -0.1888  0.3657 -0.0337
 6463SOL    HW119567   8.633   5.469   5.441 -0.6620 -1.2098 -0.4839
 6463SOL    HW219568   8.510   5.570   5.477  0.9561  0.8012 -0.4534
 6464SOL     OW19569   0.998   0.452   6.842 -0.5844 -0.0896 -0.0684
 6464SOL    HW119570   0.974   0.395   6.764 -1.0074 -0.6166  0.4372
 6464SOL    HW219571   0.915   0.472   6.895 -0.2967  0.2190  0.2687
 6465SOL     OW19572   6.589   7.971   5.536  0.0095 -0.1157  0.2762
 6465SOL    HW119573   6.523   8.002   5.467  0.4544  1.2368  0.4295
 6465SOL    HW219574   6.583   7.871   5.545  1.6172 -0.7084 -3.4641
 6466SOL     OW19575   1.508   8.407   3.874  0.2266  0.3198 -0.7224
 6466SOL    HW119576   1.496   8.506   3.880  0.5063  0.3003  0.4182
 6466SOL    HW219577   1.605   8.385   3.880  0.0742 -0.0944  0.3628
 6467SOL     OW19578   7.012   6.019   6.034 -0.1040 -0.0294  0.3267
 6467SOL    HW119579   7.077   6.076   6.084 -0.3178 -0.0901  0.6745
 6467SOL    HW219580   6.996   6.059   5.943 -0.3326  0.5208  0.6045
 6468SOL     OW19581   8.469   3.919   4.785  0.0852  0.0218 -0.1984
 6468SOL    HW119582   8.387   3.866   4.762 -0.4693  1.2804 -1.2271
 6468SOL    HW219583   8.445   3.990   4.850  0.0832  1.1027 -1.3401
 6469SOL     OW19584   1.130   2.790   3.371 -0.3928  0.4464  0.4067
 6469SOL    HW119585   1.084   2.811   3.285 -0.2829 -0.0887  0.2168
 6469SOL    HW219586   1.226   2.767   3.352 -0.8457 -1.6142  0.4452
 6470SOL     OW19587   8.311   8.861   6.944 -0.0066  0.4243 -0.3970
 6470SOL    HW119588   8.271   8.943   6.904 -1.2336  0.0875  0.0979
 6470SOL    HW219589   8.245   8.818   7.005 -0.2725 -2.2071 -2.3870
 6471SOL     OW19590   0.531   8.104   4.496  0.0819  0.3863  0.6280
 6471SOL    HW119591   0.565   8.034   4.560 -0.9723 -1.2012 -0.4694
 6471SOL    HW219592   0.436   8.085   4.474  0.3580  1.0108 -1.2645
 6472SOL     OW19593   3.820   5.123   2.066 -1.1604 -0.4933  0.0584
 6472SOL    HW119594   3.826   5.071   2.152  0.7700  1.7822  1.4199
 6472SOL    HW219595   3.884   5.084   1.999 -2.4647 -2.0983 -0.3264
 6473SOL     OW19596   3.552   5.636   7.693  0.2296  0.1412 -0.3607
 6473SOL    HW119597   3.542   5.701   7.617  0.5471 -1.0591 -1.4531
 6473SOL    HW219598   3.477   5.571   7.692  0.0604  0.3078  0.5711
 6474SOL     OW19599   3.754   6.369   3.058  0.8710  0.4099 -0.0603
 6474SOL    HW119600   3.808   6.300   3.010  1.8884  2.2210 -1.6683
 6474SOL    HW219601   3.689   6.410   2.994  0.6019  1.2407  0.7361
 6475SOL     OW19602   3.166   2.337   7.777 -0.6200  0.3964 -0.0655
 6475SOL    HW119603   3.067   2.346   7.774 -0.6858 -0.2821 -0.0484
 6475SOL    HW219604   3.208   2.428   7.773 -1.2498  0.7156  0.4381
 6476SOL     OW19605   8.214   8.176   8.484  0.1174  0.0666  0.2844
 6476SOL    HW119606   8.265   8.170   8.398  3.4231  2.1656  1.9093
 6476SOL    HW219607   8.240   8.099   8.542  0.1808  0.2654  0.5178
 6477SOL     OW19608   2.175   6.814   7.007 -0.0990 -1.0358  0.1916
 6477SOL    HW119609   2.180   6.722   6.968  0.9861 -2.1193  2.6546
 6477SOL    HW219610   2.186   6.808   7.107 -2.1661  1.5755  0.6895
 6478SOL     OW19611   4.405   1.336   8.374 -0.1926 -0.2462 -0.1607
 6478SOL    HW119612   4.395   1.273   8.451 -1.1736  0.3581  0.2239
 6478SOL    HW219613   4.320   1.339   8.322  0.3177 -0.3045 -1.0159
 6479SOL     OW19614   5.170   6.650   1.947 -0.5072  0.1766 -0.6413
 6479SOL    HW119615   5.076   6.684   1.935 -0.6751  0.1872  0.5676
 6479SOL    HW219616   5.225   6.676   1.868 -1.2760  1.0432 -0.9168
 6480SOL     OW19617   0.971   4.949   3.085 -0.1133  0.2255 -0.4830
 6480SOL    HW119618   0.939   5.044   3.090 -0.8314 -0.0589  0.7655
 6480SOL    HW219619   1.027   4.928   3.166 -2.8196 -1.3763  1.1289
 6481SOL     OW19620   0.213   8.222   7.757 -0.0673 -0.2855  0.2143
 6481SOL    HW119621   0.136   8.199   7.697 -0.3091  0.6277  0.1623
 6481SOL    HW219622   0.299   8.198   7.711 -0.2369  0.6629 -0.6315
 6482SOL     OW19623   8.167   5.407   1.335 -0.8048 -0.1530  0.1103
 6482SOL    HW119624   8.089   5.388   1.277 -0.0985  0.1332 -0.9624
 6482SOL    HW219625   8.167   5.345   1.413 -1.3497 -1.0631 -0.5959
 6483SOL     OW19626   7.806   8.047   4.378 -0.2530  0.0547 -0.1114
 6483SOL    HW119627   7.875   7.975   4.368  1.4741  1.2469  2.2617
 6483SOL    HW219628   7.776   8.077   4.288  2.8222 -0.0870 -1.3063
 6484SOL     OW19629   2.575   6.675   7.238  0.1761  0.5050 -0.3971
 6484SOL    HW119630   2.486   6.629   7.230  0.2340  0.5743 -1.5760
 6484SOL    HW219631   2.565   6.754   7.299 -0.5542  0.4600 -0.4403
 6485SOL     OW19632   7.297   3.641   8.025  0.0507 -0.2411  0.3707
 6485SOL    HW119633   7.304   3.585   8.108  0.5022  0.5910  0.9144
 6485SOL    HW219634   7.210   3.691   8.026  0.5867  0.7069  0.9685
 6486SOL     OW19635   2.275   5.179   1.282 -0.6500  0.5932  0.0490
 6486SOL    HW119636   2.201   5.130   1.235 -0.2145 -1.5882  1.4869
 6486SOL    HW219637   2.242   5.210   1.371 -0.6583  2.2427 -0.5035
 6487SOL     OW19638   7.730   3.927   6.391 -0.1993 -0.1119  0.2756
 6487SOL    HW119639   7.745   3.902   6.487 -2.3357  0.5802  0.8620
 6487SOL    HW219640   7.795   3.998   6.364  0.2029 -0.0584  1.3240
 6488SOL     OW19641   0.641   2.311   7.313  0.3409  0.2600 -0.0420
 6488SOL    HW119642   0.674   2.224   7.348  0.9138 -0.7046 -2.7359
 6488SOL    HW219643   0.685   2.386   7.362  0.6195 -0.9428  1.6218
 6489SOL     OW19644   8.417   2.687   5.319  0.0109  0.0931 -0.0384
 6489SOL    HW119645   8.489   2.750   5.348 -0.2290  0.6483 -0.6242
 6489SOL    HW219646   8.347   2.682   5.390 -0.0544  0.6345 -0.0548
 6490SOL     OW19647   6.417   3.814   7.793 -0.2800  0.3563 -0.7584
 6490SOL    HW119648   6.415   3.763   7.707 -0.6302  0.4775 -0.8248
 6490SOL    HW219649   6.426   3.912   7.774  1.1157  0.2810 -0.6111
 6491SOL     OW19650   8.522   8.364   1.218  0.2713  0.3734 -0.0398
 6491SOL    HW119651   8.535   8.443   1.278 -0.2806 -0.0291  0.6271
 6491SOL    HW219652   8.606   8.309   1.215  0.2820  0.3620  0.4251
 6492SOL     OW19653   8.716   3.953   5.129 -0.0718 -0.3362 -0.4336
 6492SOL    HW119654   8.741   3.872   5.181  1.4044  0.1983 -0.2559
 6492SOL    HW219655   8.744   3.941   5.033 -0.6169 -0.3780 -0.5868
 6493SOL     OW19656   2.117   1.398   4.884 -0.4142  0.2155 -0.0817
 6493SOL    HW119657   2.163   1.457   4.817 -2.0900  1.6396 -0.0357
 6493SOL    HW219658   2.178   1.384   4.962  0.4237  1.0414 -0.5644
 6494SOL     OW19659   1.253   0.744   5.684 -0.4970 -0.7141 -0.5455
 6494SOL    HW119660   1.198   0.765   5.765 -0.2161  0.7839 -0.7277
 6494SOL    HW219661   1.264   0.826   5.629  1.7197 -1.0295 -0.6471
 6495SOL     OW19662   0.404   6.397   7.521 -0.3446 -0.2353  0.2659
 6495SOL    HW119663   0.451   6.340   7.453  3.5723 -0.7989  3.1160
 6495SOL    HW219664   0.449   6.486   7.527 -0.1013 -0.4440  2.4802
 6496SOL     OW19665   5.123   8.459   1.516  0.3367 -0.3243  0.0730
 6496SOL    HW119666   5.114   8.447   1.418  1.1720 -0.0884 -0.0403
 6496SOL    HW219667   5.220   8.467   1.540  0.1794 -0.9689  0.9859
 6497SOL     OW19668   8.700   6.266   4.412 -0.3896  0.3469 -0.2887
 6497SOL    HW119669   8.678   6.180   4.459  1.5348  0.2411  0.4819
 6497SOL    HW219670   8.749   6.245   4.328 -0.1828  0.6865 -0.2514
 6498SOL     OW19671   6.747   6.949   5.486 -0.0216 -0.1102 -0.0010
 6498SOL    HW119672   6.728   6.981   5.579 -0.1003 -0.1222 -0.0126
 6498SOL    HW219673   6.704   6.860   5.472  0.1559 -0.1995  0.0153
 6499SOL     OW19674   2.971   4.638   2.571 -0.0175  0.0793 -0.1590
 6499SOL    HW119675   2.922   4.676   2.493 -0.3229  0.2863  0.1320
 6499SOL    HW219676   2.914   4.644   2.653  0.0970 -0.6023 -0.0168
 6500SOL     OW19677   4.626   8.852   1.356 -0.3992 -0.1004  0.1070
 6500SOL    HW119678   4.538   8.805   1.356  0.0339 -0.9332  0.7365
 6500SOL    HW219679   4.648   8.881   1.449  0.2782 -0.4536  0.0634
 6501SOL     OW19680   2.703   3.719   7.739 -0.4022  0.3451 -0.1014
 6501SOL    HW119681   2.762   3.799   7.752 -2.2129  2.0245 -1.5492
 6501SOL    HW219682   2.709   3.659   7.819  1.8395  1.3423  0.5503
 6502SOL     OW19683   1.391   7.866   1.678  0.0938  0.1627 -0.1079
 6502SOL    HW119684   1.354   7.955   1.703  0.1777  0.3431 -0.6345
 6502SOL    HW219685   1.453   7.835   1.750  0.8868  1.0085 -0.4134
 6503SOL     OW19686   7.278   1.471   1.627 -0.2083  0.1309  0.5363
 6503SOL    HW119687   7.260   1.484   1.724 -1.4303  2.3733  0.0843
 6503SOL    HW219688   7.250   1.553   1.577 -0.8512 -1.4585 -1.8745
 6504SOL     OW19689   0.167   0.912   5.289  0.2937 -0.6727 -0.1840
 6504SOL    HW119690   0.113   0.837   5.252 -0.8975 -0.3132  0.7975
 6504SOL    HW219691   0.255   0.877   5.322  1.2922 -1.0640 -2.9950
 6505SOL     OW19692   0.952   7.288   3.612  0.0476 -0.3858  0.3666
 6505SOL    HW119693   0.891   7.247   3.544  1.8541 -0.3944 -1.3469
 6505SOL    HW219694   0.906   7.366   3.655 -1.7730 -1.4286  0.4123
 6506SOL     OW19695   0.408   0.080   0.210  0.2380 -0.1551 -0.0431
 6506SOL    HW119696   0.485   0.029   0.174 -0.3163  0.1497 -1.7200
 6506SOL    HW219697   0.428   0.178   0.210  0.3738 -0.1670  0.8836
 6507SOL     OW19698   8.524   6.773   4.050  0.0062  0.1016  0.4556
 6507SOL    HW119699   8.537   6.870   4.034 -0.1818  0.1034  0.3088
 6507SOL    HW219700   8.529   6.723   3.963 -0.2654  0.0255  0.4814
 6508SOL     OW19701   8.194   4.850   1.542  0.5805  0.0474 -0.6789
 6508SOL    HW119702   8.174   4.894   1.455 -0.2579  0.0142 -0.5065
 6508SOL    HW219703   8.257   4.908   1.595 -1.7277  1.9004  0.2368
 6509SOL     OW19704   7.910   6.994   5.080 -0.1266  0.3819  0.1147
 6509SOL    HW119705   7.899   6.949   5.168 -1.3184 -0.2604 -0.3387
 6509SOL    HW219706   7.820   7.015   5.042  0.3723  0.7709 -0.8880
 6510SOL     OW19707   3.473   8.229   8.363  0.4354  0.2806 -0.1976
 6510SOL    HW119708   3.503   8.324   8.379  3.0630 -0.5042 -0.0582
 6510SOL    HW219709   3.400   8.229   8.295  0.5166  2.3986 -0.3696
 6511SOL     OW19710   7.780   5.106   0.976 -0.2928  0.0890  0.1325
 6511SOL    HW119711   7.869   5.146   0.956 -0.0373 -0.1985  0.6770
 6511SOL    HW219712   7.710   5.151   0.920 -0.0888  1.6625  1.0877
 6512SOL     OW19713   0.893   1.508   3.038 -0.1458  0.0570  0.0037
 6512SOL    HW119714   0.883   1.592   3.091  0.3147  0.2611 -0.2295
 6512SOL    HW219715   0.868   1.525   2.943 -1.0701 -0.3338  0.1615
 6513SOL     OW19716   2.465   0.195   7.957 -0.2892 -0.0265 -0.5174
 6513SOL    HW119717   2.433   0.102   7.974 -1.9591  0.3099 -1.5935
 6513SOL    HW219718   2.408   0.260   8.008  0.5891  0.4512 -0.1127
 6514SOL     OW19719   2.077   8.816   2.133 -0.1298  0.2217  0.2950
 6514SOL    HW119720   2.024   8.801   2.217 -1.1506  0.1960 -0.3415
 6514SOL    HW219721   2.163   8.766   2.139 -1.6458 -2.6604 -0.0682
 6515SOL     OW19722   0.571   7.012   5.951 -0.0315 -0.1183  0.0524
 6515SOL    HW119723   0.631   7.067   6.009 -0.7877  0.0948  0.6508
 6515SOL    HW219724   0.533   7.070   5.878  0.3796 -0.2195 -0.2421
 6516SOL     OW19725   2.008   3.295   3.356  0.8926 -0.2700  0.2252
 6516SOL    HW119726   1.952   3.245   3.422 -0.6225  1.1562  0.0671
 6516SOL    HW219727   2.104   3.287   3.383  0.4986 -1.3822  1.4459
 6517SOL     OW19728   5.426   5.385   4.665 -0.6160  0.1255  0.2903
 6517SOL    HW119729   5.520   5.398   4.634 -0.0800 -0.8131  1.4310
 6517SOL    HW219730   5.367   5.365   4.586  0.4464 -0.8778 -0.2745
 6518SOL     OW19731   2.778   3.560   8.824 -0.1520 -0.1386 -0.0343
 6518SOL    HW119732   2.749   3.646   8.864 -1.3700 -0.2836 -0.5552
 6518SOL    HW219733   2.871   3.539   8.853 -0.5391  0.3716  1.6744
 6519SOL     OW19734   7.020   8.790   2.935 -0.3389  0.3556  0.4129
 6519SOL    HW119735   7.081   8.714   2.956 -0.9235 -0.0424  0.6801
 6519SOL    HW219736   6.994   8.787   2.839  1.4521  1.5412 -0.1735
 6520SOL     OW19737   8.219   0.667   1.079 -0.2102 -0.3036 -0.1911
 6520SOL    HW119738   8.274   0.669   0.996 -0.3859 -2.7841 -0.4559
 6520SOL    HW219739   8.277   0.647   1.158 -0.4766 -1.3697 -0.2478
 6521SOL     OW19740   8.383   8.046   0.273  0.2335 -1.0557  0.0149
 6521SOL    HW119741   8.472   8.009   0.247 -0.0093 -1.6284 -0.0097
 6521SOL    HW219742   8.311   8.005   0.217 -0.0545 -0.6459  0.0772
 6522SOL     OW19743   2.536   7.184   8.706 -0.0025 -0.2127 -0.4146
 6522SOL    HW119744   2.590   7.119   8.759  0.6737 -0.3161 -1.2199
 6522SOL    HW219745   2.495   7.252   8.768 -1.6724 -2.0332  0.5893
 6523SOL     OW19746   3.489   8.684   6.716 -0.2308 -0.0450  0.5202
 6523SOL    HW119747   3.575   8.661   6.761  0.0115  0.5653  0.3854
 6523SOL    HW219748   3.468   8.780   6.731 -1.3934 -0.4107  1.3596
 6524SOL     OW19749   0.002   8.065   5.405 -0.1920 -0.9217 -0.3088
 6524SOL    HW119750   0.043   8.079   5.314  0.5146 -0.6961  0.0371
 6524SOL    HW219751  -0.044   7.976   5.407  1.3575 -1.7699 -0.3390
 6525SOL     OW19752   7.786   0.222   8.055 -0.0164  0.9769 -0.5659
 6525SOL    HW119753   7.739   0.137   8.031  0.6255  0.3254  0.3946
 6525SOL    HW219754   7.872   0.228   8.004  0.7859  0.1637  0.6412
 6526SOL     OW19755   6.242   2.189   2.473 -0.0902  0.2340  0.1337
 6526SOL    HW119756   6.225   2.181   2.571 -0.2139 -1.2834  0.0067
 6526SOL    HW219757   6.313   2.258   2.457 -0.7480  1.1913  1.2042
 6527SOL     OW19758   6.153   1.180   8.658  0.0688 -0.0148  0.0913
 6527SOL    HW119759   6.238   1.191   8.709 -0.8279 -0.9160  1.8868
 6527SOL    HW219760   6.145   1.085   8.628 -1.6259 -0.7731  2.6070
 6528SOL     OW19761   5.356   3.106   5.777 -0.1623  0.2417  0.1487
 6528SOL    HW119762   5.363   3.008   5.757  3.8877  0.4977 -0.6160
 6528SOL    HW219763   5.377   3.121   5.874 -1.8628  0.3337  0.5282
 6529SOL     OW19764   6.441   5.526   5.513  0.0153  0.5447  0.3199
 6529SOL    HW119765   6.518   5.552   5.455 -1.3841  1.4151 -1.2575
 6529SOL    HW219766   6.469   5.455   5.577  1.2759 -1.7783 -2.5750
 6530SOL     OW19767   3.128   2.596   1.132  0.0783  0.8043 -0.1373
 6530SOL    HW119768   3.194   2.572   1.204 -0.4506  0.3923  0.2178
 6530SOL    HW219769   3.037   2.570   1.161 -0.2780  1.5752 -0.5319
 6531SOL     OW19770   1.128   2.229   8.564  0.3411  0.4412 -0.0681
 6531SOL    HW119771   1.129   2.160   8.636 -0.4015  0.2987 -0.1914
 6531SOL    HW219772   1.152   2.318   8.603  2.8122 -0.1037 -0.1672
 6532SOL     OW19773   6.903   3.545   0.296 -0.4019  0.1183 -0.2888
 6532SOL    HW119774   6.946   3.520   0.209 -2.8302 -0.7444 -1.3358
 6532SOL    HW219775   6.833   3.614   0.279  0.7040  1.7324  1.4039
 6533SOL     OW19776   8.110   3.868   4.975  0.5724  0.2366  0.0464
 6533SOL    HW119777   8.093   3.892   4.880 -2.6015 -0.4178  0.3267
 6533SOL    HW219778   8.028   3.889   5.030  0.7155 -3.1192  1.8471
 6534SOL     OW19779   6.654   1.289   2.502  0.4736 -0.4490  0.1180
 6534SOL    HW119780   6.610   1.330   2.582 -0.1529  1.8214 -1.2935
 6534SOL    HW219781   6.753   1.288   2.516  0.4551  0.9073  0.5516
 6535SOL     OW19782   7.179   6.152   8.790 -0.1270 -0.1296 -0.0516
 6535SOL    HW119783   7.126   6.223   8.838 -3.9518  0.1704 -4.0570
 6535SOL    HW219784   7.140   6.062   8.811  0.7963 -0.4383  0.3858
 6536SOL     OW19785   4.012   0.528   4.197  0.6349 -0.0840 -0.2001
 6536SOL    HW119786   4.028   0.523   4.099  1.3734 -0.5078 -0.0649
 6536SOL    HW219787   3.917   0.507   4.217 -0.0554  2.0074 -0.9930
 6537SOL     OW19788   8.045   0.292   6.318 -0.3226 -0.1097  0.5242
 6537SOL    HW119789   8.124   0.272   6.260  0.7437 -1.2864  2.2671
 6537SOL    HW219790   8.077   0.318   6.409 -1.9066  2.8052  0.3807
 6538SOL     OW19791   4.395   4.984   2.868 -0.1204  0.5060  0.2028
 6538SOL    HW119792   4.323   5.046   2.837 -0.2212 -0.3428 -1.3487
 6538SOL    HW219793   4.463   5.036   2.920 -0.6152  1.7624 -0.3663
 6539SOL     OW19794   5.479   2.541   5.012  0.2395  0.2665 -0.1691
 6539SOL    HW119795   5.556   2.604   5.011 -0.1829  0.7856 -0.2705
 6539SOL    HW219796   5.435   2.543   5.102 -0.6643  1.2169 -0.6172
 6540SOL     OW19797   3.251   1.208   1.938 -0.0924 -0.0481  0.4282
 6540SOL    HW119798   3.259   1.261   2.023  0.6305  0.4702  0.0458
 6540SOL    HW219799   3.217   1.116   1.960  0.7791 -0.1682  1.3791
 6541SOL     OW19800   1.436   2.740   6.150 -0.8404 -0.5210 -0.5962
 6541SOL    HW119801   1.526   2.784   6.146 -0.4710 -1.3261 -1.5226
 6541SOL    HW219802   1.404   2.722   6.058 -1.2608 -1.6409 -0.2426
 6542SOL     OW19803   0.574   1.558   0.579  0.1990  0.6027  0.0469
 6542SOL    HW119804   0.666   1.557   0.542  0.2158 -0.8730  0.0719
 6542SOL    HW219805   0.535   1.650   0.571  1.0481  0.8460 -1.4812
 6543SOL     OW19806   3.986   3.976   5.113 -0.0649  0.1403 -0.4571
 6543SOL    HW119807   4.017   3.931   5.029 -0.5824 -0.7972 -0.1659
 6543SOL    HW219808   3.895   3.941   5.137  0.2906  0.0095  0.7728
 6544SOL     OW19809   6.309   6.352   7.923 -0.2003 -0.1318  0.1528
 6544SOL    HW119810   6.259   6.395   7.848  0.5577  0.5377  0.0228
 6544SOL    HW219811   6.247   6.334   7.999 -0.4529  1.6316  0.4041
 6545SOL     OW19812   4.277   8.351   2.652  0.1518 -0.4409 -0.5014
 6545SOL    HW119813   4.342   8.406   2.600  0.5342  0.8932  1.3059
 6545SOL    HW219814   4.271   8.385   2.746 -0.2432 -2.9723  0.4779
 6546SOL     OW19815   5.264   1.752   2.321 -0.5164  0.2257 -0.0887
 6546SOL    HW119816   5.276   1.811   2.401  1.1004  0.1107 -0.2073
 6546SOL    HW219817   5.253   1.809   2.239  2.9967  0.5251 -0.5026
 6547SOL     OW19818   7.531   1.234   0.100 -0.6304  0.3718 -0.0178
 6547SOL    HW119819   7.625   1.229   0.067 -1.4197 -0.7878 -2.3189
 6547SOL    HW219820   7.516   1.323   0.144  1.0732  1.2591 -1.1130
 6548SOL     OW19821   1.620   1.996   5.305  0.1559  0.1429 -0.4866
 6548SOL    HW119822   1.551   1.938   5.348  0.8934 -0.1220  0.3806
 6548SOL    HW219823   1.626   1.975   5.208  0.3491 -1.1842 -0.2000
 6549SOL     OW19824   0.423   8.519   0.957  0.0313  0.2060 -0.4847
 6549SOL    HW119825   0.438   8.565   0.869  1.2732 -0.1481 -0.4745
 6549SOL    HW219826   0.342   8.557   1.001 -0.6905  0.3058 -1.8339
 6550SOL     OW19827   3.468   8.564   8.020 -0.3866  0.1057 -0.0461
 6550SOL    HW119828   3.369   8.572   8.026 -0.2405  2.1096  0.2322
 6550SOL    HW219829   3.501   8.609   7.937  0.4336  1.2277  0.8572
 6551SOL     OW19830   3.523   8.183   1.826 -0.5302  0.1076  0.4499
 6551SOL    HW119831   3.532   8.088   1.794 -0.3638 -0.2841  1.6024
 6551SOL    HW219832   3.430   8.197   1.861 -0.4176  0.2253  0.7059
 6552SOL     OW19833   0.258   6.715   7.936  0.1418 -0.4856 -0.1733
 6552SOL    HW119834   0.168   6.710   7.979 -0.8935 -0.3778 -2.1994
 6552SOL    HW219835   0.314   6.782   7.985 -0.9701 -0.3273  0.9416
 6553SOL     OW19836   0.834   8.445   8.212  0.2380 -0.4723 -0.3141
 6553SOL    HW119837   0.909   8.450   8.278 -0.1319  0.9784  0.0449
 6553SOL    HW219838   0.856   8.503   8.133 -0.0660 -0.8331 -0.6642
 6554SOL     OW19839   0.893   6.155   7.654  0.2946 -0.1605  0.3808
 6554SOL    HW119840   0.954   6.199   7.719  0.3551 -2.3366  1.8994
 6554SOL    HW219841   0.827   6.098   7.702 -1.5712  0.3941 -1.3480
 6555SOL     OW19842   2.829   2.532   6.149 -0.9241 -0.4182  0.4592
 6555SOL    HW119843   2.902   2.464   6.147 -1.7846 -1.4816  2.3553
 6555SOL    HW219844   2.822   2.569   6.242 -2.5550 -0.0768  0.2156
 6556SOL     OW19845   6.667   2.685   2.210 -0.0977  0.0093  0.0904
 6556SOL    HW119846   6.731   2.635   2.151 -0.1459  0.5939 -0.4702
 6556SOL    HW219847   6.667   2.645   2.301  0.3601 -0.5919 -0.1688
 6557SOL     OW19848   4.109   5.371   1.354 -0.2788  0.0560  0.4728
 6557SOL    HW119849   4.152   5.281   1.349  1.3297  0.8099 -0.0378
 6557SOL    HW219850   4.105   5.411   1.262 -1.5886  0.2380  0.5965
 6558SOL     OW19851   3.041   0.001   8.115 -0.0559  0.2698 -0.1676
 6558SOL    HW119852   3.025   0.099   8.112 -4.3728 -0.0822  2.4373
 6558SOL    HW219853   3.042  -0.029   8.210 -0.0761 -2.3684 -0.9239
 6559SOL     OW19854   5.808   1.765   2.978  0.5562 -0.0950 -0.4218
 6559SOL    HW119855   5.756   1.680   2.974  0.6887 -0.2319  0.6542
 6559SOL    HW219856   5.768   1.831   2.913 -0.3142 -0.5451 -0.3578
 6560SOL     OW19857   5.753   1.424   1.029  0.1452  0.6982  0.2470
 6560SOL    HW119858   5.842   1.444   0.989  0.4991 -0.2442  0.5397
 6560SOL    HW219859   5.682   1.432   0.959  0.3617  2.1151  0.1685
 6561SOL     OW19860   6.427   2.608   1.316  0.4398 -0.5374  0.6238
 6561SOL    HW119861   6.341   2.566   1.289  0.8673 -1.2171  0.2849
 6561SOL    HW219862   6.459   2.568   1.402  1.9288 -2.5400 -0.7702
 6562SOL     OW19863   7.117   4.807   8.326 -0.3830 -0.0912  0.3779
 6562SOL    HW119864   7.189   4.820   8.258  0.6711 -2.6468  0.9207
 6562SOL    HW219865   7.062   4.727   8.301 -1.2234  0.1087  1.5083
 6563SOL     OW19866   7.125   3.931   6.059  0.0899 -0.3709 -0.1575
 6563SOL    HW119867   7.186   3.954   5.983  0.0213  1.0910  0.1958
 6563SOL    HW219868   7.030   3.939   6.028  0.0363  1.3707  0.3426
 6564SOL     OW19869   4.249   8.626   8.173 -0.0115  0.3190 -0.2342
 6564SOL    HW119870   4.210   8.714   8.200  0.3799  0.6889 -0.8196
 6564SOL    HW219871   4.176   8.561   8.154 -0.3961 -0.8423  4.1504
 6565SOL     OW19872   4.988   1.832   2.560 -0.0008  0.1363  0.7804
 6565SOL    HW119873   4.980   1.868   2.467 -2.4823 -0.3966  0.7249
 6565SOL    HW219874   5.017   1.905   2.621  1.4317  0.5558 -0.3351
 6566SOL     OW19875   5.741   3.846   1.983 -0.2479  0.3955 -0.0900
 6566SOL    HW119876   5.784   3.857   1.894 -0.4033 -0.0434 -0.2180
 6566SOL    HW219877   5.812   3.827   2.052 -0.1471  0.5565 -0.1496
 6567SOL     OW19878   0.102   5.141   7.236  0.4408 -0.2071 -0.2121
 6567SOL    HW119879   0.043   5.085   7.294 -0.6676  0.7588 -0.3730
 6567SOL    HW219880   0.161   5.081   7.181 -0.7546 -1.2293 -0.4286
 6568SOL     OW19881   6.859   6.097   0.543 -0.1277  0.5584  0.1688
 6568SOL    HW119882   6.952   6.061   0.533  0.0755  1.1278 -0.0241
 6568SOL    HW219883   6.818   6.108   0.452 -0.3367  0.4323  0.2474
 6569SOL     OW19884   4.863   1.567   2.691 -0.4976 -0.1433  0.2022
 6569SOL    HW119885   4.886   1.661   2.664  1.0741 -0.2926  0.9185
 6569SOL    HW219886   4.815   1.522   2.616  0.6438  0.5606 -0.9936
 6570SOL     OW19887   1.969   1.495   8.059 -0.5626  0.8574 -0.3010
 6570SOL    HW119888   1.977   1.571   8.123 -1.1032  1.3476 -0.8127
 6570SOL    HW219889   2.014   1.414   8.098 -0.0707  1.4050  0.2836
 6571SOL     OW19890   1.196   1.627   2.295  0.2167  0.0475 -0.0359
 6571SOL    HW119891   1.221   1.647   2.201  0.6293  1.4259  0.3443
 6571SOL    HW219892   1.100   1.599   2.298  0.3494 -0.5337 -0.9208
 6572SOL     OW19893   2.427   7.506   2.716  0.3379 -0.9283  0.2078
 6572SOL    HW119894   2.369   7.519   2.636  1.1452 -1.6436 -0.5238
 6572SOL    HW219895   2.471   7.416   2.710  0.1003 -1.1555  1.6660
 6573SOL     OW19896   2.273   0.613   4.259  0.5468  0.0651  0.1182
 6573SOL    HW119897   2.214   0.694   4.262 -0.1904 -0.4676  0.1773
 6573SOL    HW219898   2.241   0.551   4.188  1.8709  0.3851 -0.7904
 6574SOL     OW19899   1.071   3.098   7.754 -0.1131  0.1899  0.0358
 6574SOL    HW119900   1.168   3.122   7.754 -0.1704  0.4227  0.0333
 6574SOL    HW219901   1.021   3.162   7.695 -0.3420  0.3724  0.4260
 6575SOL     OW19902   4.129   7.896   5.231  0.2689 -0.0187  0.5232
 6575SOL    HW119903   4.229   7.891   5.219  0.1947  0.2288 -0.2863
 6575SOL    HW219904   4.089   7.806   5.213  0.2275  0.1917 -0.5480
 6576SOL     OW19905   6.083   4.472   0.487  0.2362 -0.5852  1.0397
 6576SOL    HW119906   6.128   4.469   0.576  2.1494  2.1819  0.2971
 6576SOL    HW219907   6.006   4.536   0.490  0.9447  0.3306  0.5222
 6577SOL     OW19908   4.990   2.856   1.413 -0.5303 -0.0255  0.1694
 6577SOL    HW119909   4.903   2.901   1.434  0.1930  1.1263  0.7966
 6577SOL    HW219910   5.035   2.830   1.498  0.1866  0.2719 -0.1170
 6578SOL     OW19911   2.597   5.674   2.536 -0.1373 -0.7602  0.0641
 6578SOL    HW119912   2.565   5.615   2.461  0.9258 -2.0243  0.5633
 6578SOL    HW219913   2.572   5.633   2.624 -0.4897  0.1985  0.4248
 6579SOL     OW19914   5.665   4.713   0.421  0.3174  0.3605 -0.0351
 6579SOL    HW119915   5.598   4.745   0.488  0.1928  1.4278 -0.6544
 6579SOL    HW219916   5.626   4.639   0.367 -0.4355  1.1022 -0.5173
 6580SOL     OW19917   0.080   7.557   2.487  0.0315  0.0280 -0.3485
 6580SOL    HW119918   0.059   7.482   2.550 -0.7241 -0.5181 -1.2337
 6580SOL    HW219919   0.148   7.618   2.529  0.8953 -1.3111  0.2522
 6581SOL     OW19920   5.940   5.048   5.665 -0.2892  0.1842  0.7387
 6581SOL    HW119921   5.961   5.082   5.573 -0.4782 -2.8111 -0.5618
 6581SOL    HW219922   6.025   5.030   5.714 -0.0165 -1.3766 -0.2186
 6582SOL     OW19923   3.812   1.978   0.006 -0.0656 -0.5331 -0.6133
 6582SOL    HW119924   3.853   2.039   0.075 -0.9108 -1.2272  0.5382
 6582SOL    HW219925   3.859   1.890   0.008 -1.2588 -1.1706  0.3776
 6583SOL     OW19926   1.766   0.923   0.306  0.2965  0.4384 -0.0046
 6583SOL    HW119927   1.741   0.964   0.218 -1.5409  0.4122  0.4529
 6583SOL    HW219928   1.727   0.831   0.313  0.0909  0.5797  0.9711
 6584SOL     OW19929   4.851   7.194   6.137  0.2469 -0.6364 -0.0576
 6584SOL    HW119930   4.895   7.241   6.061  1.6817  1.5786  1.9676
 6584SOL    HW219931   4.751   7.202   6.127  0.4085  2.0725 -0.3764
 6585SOL     OW19932   0.519   1.432   3.286 -0.3111 -0.2016  0.3020
 6585SOL    HW119933   0.558   1.436   3.194  3.0389  1.3468  1.6452
 6585SOL    HW219934   0.464   1.349   3.294 -0.5451 -0.5076 -2.9869
 6586SOL     OW19935   0.147   7.453   2.236 -0.3232  0.0814 -0.1339
 6586SOL    HW119936   0.121   7.467   2.332 -3.4300 -2.2479 -0.4805
 6586SOL    HW219937   0.189   7.363   2.227 -0.7998 -0.0524 -1.0783
 6587SOL     OW19938   5.505   0.344   5.927  0.1660  0.5048  0.3640
 6587SOL    HW119939   5.604   0.345   5.940  0.1355 -0.4983  0.7695
 6587SOL    HW219940   5.481   0.405   5.852  1.1826  0.1105 -0.3097
 6588SOL     OW19941   4.346   3.639   1.337 -0.2868  0.0927  0.4435
 6588SOL    HW119942   4.388   3.659   1.426  3.1533 -0.3656 -0.9159
 6588SOL    HW219943   4.289   3.557   1.344 -1.2892  0.8929  2.4678
 6589SOL     OW19944   0.029   1.849   2.551 -0.1973 -0.1605  0.2801
 6589SOL    HW119945  -0.070   1.842   2.547 -0.3182  1.5297 -0.6185
 6589SOL    HW219946   0.055   1.937   2.589  1.0161 -1.4215  2.5935
 6590SOL     OW19947   6.191   0.756   1.757  0.1758 -0.5838  0.0461
 6590SOL    HW119948   6.119   0.821   1.779  0.2215  0.1071 -1.6682
 6590SOL    HW219949   6.280   0.799   1.770  0.3434 -1.4718  2.2690
 6591SOL     OW19950   5.184   3.330   1.402 -0.1726  0.0524  0.4601
 6591SOL    HW119951   5.260   3.287   1.354 -0.3201  0.7082 -0.3913
 6591SOL    HW219952   5.100   3.279   1.383 -0.4220  0.9073 -0.8875
 6592SOL     OW19953   2.177   0.843   0.156  0.4437 -0.2361 -0.7731
 6592SOL    HW119954   2.197   0.875   0.248  0.3196 -2.5104  0.1090
 6592SOL    HW219955   2.091   0.884   0.125  0.8614  1.1332 -0.2252
 6593SOL     OW19956   3.382   1.656   8.312 -0.7610  0.0541  0.3212
 6593SOL    HW119957   3.322   1.641   8.232  0.3023 -0.7713 -0.3546
 6593SOL    HW219958   3.452   1.723   8.289  0.6634 -1.5046 -0.1090
 6594SOL     OW19959   4.361   2.458   4.668  0.5292  0.4532 -0.4223
 6594SOL    HW119960   4.351   2.420   4.576 -1.9651  1.3924 -0.6166
 6594SOL    HW219961   4.306   2.405   4.733  1.6803  0.2450  0.4101
 6595SOL     OW19962   4.138   2.923   7.228  0.7386  0.1916 -0.4668
 6595SOL    HW119963   4.152   2.993   7.158 -1.1951  0.1086 -1.0075
 6595SOL    HW219964   4.166   2.834   7.192 -0.7235  0.0638 -1.4025
 6596SOL     OW19965   8.719   6.366   2.870  0.0112 -0.3697  0.1323
 6596SOL    HW119966   8.638   6.425   2.871 -1.3086 -2.1147  0.8105
 6596SOL    HW219967   8.708   6.297   2.799  0.8178 -0.7499  0.3729
 6597SOL     OW19968   4.234   3.985   0.244 -0.0910  1.0467 -0.2259
 6597SOL    HW119969   4.254   3.896   0.286  1.8883  1.7897  0.5542
 6597SOL    HW219970   4.205   3.972   0.150  1.6110 -0.3950 -0.6132
 6598SOL     OW19971   0.522   8.475   8.148 -0.2949 -0.0967 -0.1445
 6598SOL    HW119972   0.422   8.478   8.145 -0.2646  1.0293 -1.0145
 6598SOL    HW219973   0.552   8.478   8.243 -1.0867  1.8594  0.1081
 6599SOL     OW19974   0.837   3.025   2.510 -0.0320 -0.2484 -0.3249
 6599SOL    HW119975   0.861   3.047   2.604 -1.7514 -1.2283  0.3947
 6599SOL    HW219976   0.768   3.090   2.477  0.5818  0.1065 -0.9247
 6600SOL     OW19977   3.173   6.039   0.573 -0.2090 -0.1144  0.6153
 6600SOL    HW119978   3.213   6.122   0.534  1.3444 -0.5630  1.1989
 6600SOL    HW219979   3.135   5.982   0.500  1.1698 -0.1647 -0.0868
 6601SOL     OW19980   0.612   2.061   5.190  0.1849  0.1199 -0.9854
 6601SOL    HW119981   0.625   2.124   5.114  1.9123  0.5908 -0.3482
 6601SOL    HW219982   0.519   2.024   5.188 -0.8001  2.4774 -1.5311
 6602SOL     OW19983   8.446   2.920   7.628  0.1317  0.6681 -0.0593
 6602SOL    HW119984   8.418   2.824   7.632 -0.1722  0.7526 -0.1602
 6602SOL    HW219985   8.454   2.957   7.721  0.1382  0.5779 -0.0242
 6603SOL     OW19986   6.636   0.653   6.085 -0.5705 -0.5692  0.0385
 6603SOL    HW119987   6.603   0.629   6.177 -0.2551 -0.3152  0.2175
 6603SOL    HW219988   6.627   0.573   6.025 -0.2441 -0.9131  0.4392
 6604SOL     OW19989   0.735   5.438   5.546  0.2542 -0.0794 -0.0325
 6604SOL    HW119990   0.648   5.402   5.579  0.9203 -0.5721  1.2505
 6604SOL    HW219991   0.810   5.397   5.597  1.3918 -1.0359 -2.3042
 6605SOL     OW19992   8.388   7.475   0.270  0.4504  0.1733  0.4084
 6605SOL    HW119993   8.484   7.468   0.243  0.3024  0.9376 -0.3509
 6605SOL    HW219994   8.378   7.443   0.365  1.6486  1.2467  0.9267
 6606SOL     OW19995   1.224   7.279   2.018 -0.5141 -0.3335 -0.0619
 6606SOL    HW119996   1.272   7.191   2.020  0.6556  0.2406 -1.4363
 6606SOL    HW219997   1.186   7.298   2.109 -1.3893 -2.5620  0.1022
 6607SOL     OW19998   2.245   2.305   4.582  0.3259  0.0976  0.4605
 6607SOL    HW119999   2.201   2.263   4.503  0.8161 -1.4595  0.9726
 6607SOL    HW220000   2.304   2.238   4.626  0.9353  1.2777  1.4939
 6608SOL     OW20001   4.817   0.168   8.175 -0.1277  0.5750 -0.6683
 6608SOL    HW120002   4.781   0.078   8.201  1.5126  0.2041  0.5306
 6608SOL    HW220003   4.830   0.172   8.076 -1.0568 -0.1712 -0.8325
 6609SOL     OW20004   5.630   1.031   7.958 -0.0794 -0.0834 -0.6396
 6609SOL    HW120005   5.541   1.028   7.912 -1.0023 -0.5487  1.0949
 6609SOL    HW220006   5.634   0.959   8.027  1.9616 -0.5611 -1.2030
 6610SOL     OW20007   5.310   5.739   4.594  0.3870  0.1836  0.2055
 6610SOL    HW120008   5.255   5.678   4.652  0.6899  0.4060  0.7268
 6610SOL    HW220009   5.371   5.794   4.651  1.6653 -0.5560 -0.4086
 6611SOL     OW20010   3.328   3.095   1.157 -0.0361 -0.3462 -0.2436
 6611SOL    HW120011   3.300   3.016   1.102  1.7768 -1.3581  0.1994
 6611SOL    HW220012   3.253   3.121   1.218 -1.8146  0.3294 -2.6073
 6612SOL     OW20013   5.715   5.707   1.897 -0.7519 -0.1935  0.1840
 6612SOL    HW120014   5.744   5.663   1.812  0.1380  0.8917 -0.0999
 6612SOL    HW220015   5.683   5.637   1.961  0.5570 -1.2571 -0.2648
 6613SOL     OW20016   3.755   4.399   2.254 -0.1492 -0.0553 -0.3088
 6613SOL    HW120017   3.815   4.479   2.249  0.5279 -0.4330  1.0342
 6613SOL    HW220018   3.666   4.426   2.291  0.5595 -0.1087  1.5726
 6614SOL     OW20019   0.940   7.646   8.775  0.4771 -0.2752 -0.6288
 6614SOL    HW120020   0.986   7.613   8.857  1.5641 -0.2178 -1.2062
 6614SOL    HW220021   1.002   7.703   8.721 -0.3917  0.1464 -1.2200
 6615SOL     OW20022   1.640   8.391   6.942 -0.0551 -0.1507 -0.1257
 6615SOL    HW120023   1.621   8.380   6.845  2.1382 -2.1801 -0.3809
 6615SOL    HW220024   1.663   8.487   6.960 -2.2772  0.6702 -1.1823
 6616SOL     OW20025   4.943   0.775   3.184 -0.2066  0.0602  0.1135
 6616SOL    HW120026   4.942   0.745   3.088  0.5917 -1.8483  0.6708
 6616SOL    HW220027   5.002   0.716   3.237 -0.2916  1.3650  1.7409
 6617SOL     OW20028   7.950   5.188   6.792  0.3577  0.2607 -0.3701
 6617SOL    HW120029   8.005   5.119   6.745 -0.0755 -0.3642  0.0263
 6617SOL    HW220030   7.985   5.201   6.885  0.5843  0.7493 -0.5231
 6618SOL     OW20031   4.537   1.616   2.888  0.4604  0.2372 -0.5501
 6618SOL    HW120032   4.440   1.595   2.892  0.2122  1.4209 -0.1980
 6618SOL    HW220033   4.571   1.639   2.979  0.8657  0.7128 -0.8130
 6619SOL     OW20034   2.406   5.228   8.666  0.7269 -0.4191  0.3087
 6619SOL    HW120035   2.468   5.256   8.739  0.9605 -0.5474  0.1577
 6619SOL    HW220036   2.327   5.290   8.664  0.8784 -0.2224  0.4615
 6620SOL     OW20037   8.198   7.390   8.259  0.0329 -0.0347 -0.4425
 6620SOL    HW120038   8.264   7.347   8.197  0.0853 -0.4718 -0.0861
 6620SOL    HW220039   8.156   7.320   8.317  0.5683  0.4593  0.5657
 6621SOL     OW20040   7.153   5.816   4.157 -0.4443 -0.3126  0.4860
 6621SOL    HW120041   7.234   5.821   4.216 -0.1739 -0.3693  0.1258
 6621SOL    HW220042   7.074   5.853   4.205 -0.7085 -2.3493  1.6975
 6622SOL     OW20043   4.461   0.071   4.404  0.2041  0.6088  0.1243
 6622SOL    HW120044   4.450   0.136   4.328  0.8268  0.9291  0.3043
 6622SOL    HW220045   4.453   0.121   4.490 -0.5342  0.2394  0.2777
 6623SOL     OW20046   1.427   1.615   4.168  0.2257 -0.2723 -0.4643
 6623SOL    HW120047   1.411   1.645   4.262  0.8361 -0.3519 -0.3301
 6623SOL    HW220048   1.469   1.524   4.169  1.0870  0.1091 -0.7781
 6624SOL     OW20049   4.404   3.442   2.021  0.4146  0.3701 -0.1495
 6624SOL    HW120050   4.309   3.420   1.999  0.1805  1.9410 -0.9028
 6624SOL    HW220051   4.448   3.363   2.062 -1.1136 -0.5102 -0.1148
 6625SOL     OW20052   4.026   6.812   1.932  0.4371  0.0933  0.2827
 6625SOL    HW120053   4.005   6.801   2.029  1.1339  0.1246  0.4429
 6625SOL    HW220054   4.118   6.777   1.913 -1.1465 -3.8080 -1.1672
 6626SOL     OW20055   7.521   6.364   1.689 -0.1771 -0.0558 -0.4861
 6626SOL    HW120056   7.514   6.279   1.741  1.2085  0.3613  0.4476
 6626SOL    HW220057   7.609   6.408   1.708 -1.3722  2.2469  0.0719
 6627SOL     OW20058   8.589   0.839   6.965  0.0124 -0.2731  0.5318
 6627SOL    HW120059   8.504   0.787   6.956  0.3669 -0.7133 -0.5104
 6627SOL    HW220060   8.651   0.790   7.026 -0.8624  0.5918  2.1597
 6628SOL     OW20061   1.318   7.243   0.766  0.0297  0.0040 -0.1306
 6628SOL    HW120062   1.343   7.288   0.681 -1.5102  3.4036  1.0183
 6628SOL    HW220063   1.239   7.184   0.751 -1.0188  1.5301 -0.9394
 6629SOL     OW20064   7.244   8.533   1.902 -0.1932  0.1609  0.6873
 6629SOL    HW120065   7.249   8.455   1.839 -2.2109  0.1417  0.4893
 6629SOL    HW220066   7.329   8.585   1.896  1.2302 -1.9968  0.8456
 6630SOL     OW20067   6.762   1.046   7.254 -0.2860 -0.0621  0.5080
 6630SOL    HW120068   6.774   0.991   7.171  1.1085 -0.4554  0.9371
 6630SOL    HW220069   6.719   0.990   7.325  0.0564 -0.2585  0.5669
 6631SOL     OW20070   8.140   0.934   5.658 -0.4000  0.4872  0.3262
 6631SOL    HW120071   8.139   0.960   5.755 -0.7769 -0.4889  0.5905
 6631SOL    HW220072   8.219   0.875   5.641 -0.2488  0.7830  0.0026
 6632SOL     OW20073   6.774   6.637   6.552 -0.1617 -0.3640  0.3990
 6632SOL    HW120074   6.751   6.606   6.460 -0.9373 -1.2247  0.8719
 6632SOL    HW220075   6.857   6.591   6.583  0.5484  0.5058 -0.1504
 6633SOL     OW20076   3.011   6.259   2.748 -0.0549  0.0775 -0.2567
 6633SOL    HW120077   2.978   6.207   2.669 -0.1160  0.6248 -0.5888
 6633SOL    HW220078   2.934   6.277   2.809 -0.0647 -0.0673 -0.2244
 6634SOL     OW20079   1.683   1.555   3.842 -0.1550  0.0203  0.6399
 6634SOL    HW120080   1.761   1.580   3.899  1.6434 -0.4777 -1.4579
 6634SOL    HW220081   1.636   1.637   3.812  0.9527  0.4872  0.1252
 6635SOL     OW20082   2.994   5.333   3.425 -0.2552  0.3376 -0.2539
 6635SOL    HW120083   3.056   5.369   3.495  0.0218 -0.1483 -0.2461
 6635SOL    HW220084   3.000   5.233   3.422 -0.5603  0.3257 -0.6957
 6636SOL     OW20085   6.324   2.826   3.076 -0.0223 -0.2250 -0.0809
 6636SOL    HW120086   6.281   2.859   2.992 -0.1229  1.9358  0.7817
 6636SOL    HW220087   6.348   2.903   3.135  0.1448 -1.6772  1.8598
 6637SOL     OW20088   7.138   3.254   0.508 -0.4938 -0.4962  0.0249
 6637SOL    HW120089   7.188   3.271   0.593  1.7800  0.0751 -1.3602
 6637SOL    HW220090   7.060   3.316   0.503 -0.1283  0.0989  1.2689
 6638SOL     OW20091   0.239   1.908   4.497  0.4369  0.0313 -0.1885
 6638SOL    HW120092   0.253   1.995   4.450 -0.3514  0.7075  0.7747
 6638SOL    HW220093   0.141   1.892   4.508  0.4299 -2.3134 -2.7008
 6639SOL     OW20094   2.202   4.853   8.788  0.3278 -0.0677 -0.2448
 6639SOL    HW120095   2.132   4.924   8.793  0.5695  0.1459  0.0470
 6639SOL    HW220096   2.272   4.879   8.721  0.2825 -0.1519 -0.3261
 6640SOL     OW20097   7.816   6.389   2.748  0.5651  0.5639  0.1126
 6640SOL    HW120098   7.718   6.373   2.763  0.9164 -1.6249  0.4529
 6640SOL    HW220099   7.828   6.467   2.687 -1.5047 -0.5402 -1.8753
 6641SOL     OW20100   6.413   7.841   2.908  0.3714  0.0848  0.6452
 6641SOL    HW120101   6.416   7.855   2.809  2.9622 -1.1137  0.4899
 6641SOL    HW220102   6.474   7.905   2.953  1.8257 -1.5717  1.1179
 6642SOL     OW20103   5.833   7.411   0.557  0.0330 -0.1896  0.5742
 6642SOL    HW120104   5.742   7.381   0.531 -0.6419  1.8138  0.4190
 6642SOL    HW220105   5.831   7.448   0.649  0.3898  0.9697  0.1355
 6643SOL     OW20106   7.114   1.601   1.215 -0.3134  0.7665 -0.1480
 6643SOL    HW120107   7.048   1.527   1.231  1.5662 -0.7587  0.9774
 6643SOL    HW220108   7.124   1.617   1.117 -2.3369  1.0806 -0.3466
 6644SOL     OW20109   0.355   1.960   4.769  0.5557  0.5034  0.1800
 6644SOL    HW120110   0.291   1.937   4.842  0.6987 -2.6290 -0.5743
 6644SOL    HW220111   0.323   1.923   4.682  1.9942  1.3473 -0.7709
 6645SOL     OW20112   0.476   7.275   5.274 -0.6456  0.2757 -0.1033
 6645SOL    HW120113   0.465   7.369   5.306 -0.1568  0.2479  0.1517
 6645SOL    HW220114   0.547   7.230   5.327  1.4282  0.7381 -2.2936
 6646SOL     OW20115   3.061   0.157   5.221 -0.1777  0.1876  0.0992
 6646SOL    HW120116   3.096   0.216   5.294  0.0581 -0.6742  0.7015
 6646SOL    HW220117   3.127   0.154   5.146  0.6412 -0.6906  0.8269
 6647SOL     OW20118   5.207   3.876   2.856 -0.1386 -0.1502  0.1357
 6647SOL    HW120119   5.198   3.780   2.881 -3.5727  0.1029  0.2357
 6647SOL    HW220120   5.188   3.887   2.758  0.4636  0.4428  0.0712
 6648SOL     OW20121   0.792   1.304   4.919  0.4140  0.1041  0.2658
 6648SOL    HW120122   0.884   1.267   4.905  0.0368 -1.0167  0.6878
 6648SOL    HW220123   0.726   1.230   4.925 -0.5221  0.8931  0.0691
 6649SOL     OW20124   8.105   3.696   6.048  0.0882 -0.0884 -0.0840
 6649SOL    HW120125   8.131   3.706   6.144  0.5130 -1.4459 -0.0366
 6649SOL    HW220126   8.177   3.648   5.999  0.2912  1.4005 -1.3169
 6650SOL     OW20127   6.505   6.457   7.444  0.1672 -0.1575  0.4652
 6650SOL    HW120128   6.554   6.370   7.439  2.1016  0.8411  0.7653
 6650SOL    HW220129   6.556   6.527   7.393 -0.5694  1.1148  1.4114
 6651SOL     OW20130   3.029   3.458   4.239 -0.4841  0.2071 -0.1873
 6651SOL    HW120131   3.088   3.470   4.319  1.3748  2.5931 -1.7541
 6651SOL    HW220132   3.086   3.439   4.159 -2.1484 -0.5867 -1.2283
 6652SOL     OW20133   0.958   4.242   1.041  0.1390 -0.3020  0.7406
 6652SOL    HW120134   0.931   4.323   0.988 -1.4614 -1.1584  0.1974
 6652SOL    HW220135   0.985   4.270   1.133  0.7775  0.9637  0.1956
 6653SOL     OW20136   5.272   6.605   7.955  0.0391  0.3296  0.1031
 6653SOL    HW120137   5.256   6.700   7.980  0.3864  0.9388 -1.7741
 6653SOL    HW220138   5.273   6.597   7.855 -0.0247 -1.6627  0.2148
 6654SOL     OW20139   5.352   7.324   4.132  0.0703  0.1464  0.2461
 6654SOL    HW120140   5.330   7.232   4.099  1.5866 -0.2418  0.2153
 6654SOL    HW220141   5.353   7.388   4.056 -2.4904  0.5374  0.4757
 6655SOL     OW20142   6.788   1.191   5.412  0.8187 -0.1727 -0.3950
 6655SOL    HW120143   6.743   1.256   5.473 -0.5236  1.2735 -2.7825
 6655SOL    HW220144   6.760   1.098   5.435 -1.8372  0.5319 -0.4875
 6656SOL     OW20145   3.541   7.432   1.244 -0.1944  0.0675  0.2504
 6656SOL    HW120146   3.465   7.399   1.300 -0.0991 -0.2008  0.2200
 6656SOL    HW220147   3.582   7.356   1.195 -1.2512  0.4890 -1.3973
 6657SOL     OW20148   8.823   1.482   1.791 -0.0884 -0.0812  0.0083
 6657SOL    HW120149   8.768   1.472   1.874  2.1327 -2.9266  1.3502
 6657SOL    HW220150   8.768   1.457   1.711 -1.5974  0.3137  0.8812
 6658SOL     OW20151   2.155   1.480   6.110  0.2986  0.6026  0.1765
 6658SOL    HW120152   2.121   1.432   6.029 -0.3921 -0.2834  0.9671
 6658SOL    HW220153   2.083   1.540   6.146  1.0303  1.9884 -0.5851
 6659SOL     OW20154   8.719   2.626   2.045 -0.3471  0.1610  0.3453
 6659SOL    HW120155   8.666   2.646   1.962  0.1699 -0.8067 -0.2437
 6659SOL    HW220156   8.796   2.566   2.021 -0.4575 -0.5176  1.6021
 6660SOL     OW20157   3.869   1.530   5.086 -0.0787 -0.0694 -0.8296
 6660SOL    HW120158   3.966   1.522   5.109 -0.6716 -0.4997  1.7647
 6660SOL    HW220159   3.846   1.626   5.073  0.6774  0.0359 -1.4605
 6661SOL     OW20160   0.486   2.901   0.191 -0.1954  0.1100  0.3566
 6661SOL    HW120161   0.398   2.917   0.145 -0.3442  0.2219  0.6762
 6661SOL    HW220162   0.488   2.807   0.226 -0.8827  0.6077  1.8197
 6662SOL     OW20163   2.079   2.346   5.547  0.3430 -0.1169  0.5464
 6662SOL    HW120164   2.011   2.403   5.501  0.6799 -0.2225 -0.0977
 6662SOL    HW220165   2.143   2.309   5.479  1.0950  0.0559  1.1403
 6663SOL     OW20166   8.425   3.605   8.847 -0.7867 -0.1605  0.5118
 6663SOL    HW120167   8.340   3.604   8.899 -0.6699  0.3819  0.7210
 6663SOL    HW220168   8.408   3.579   8.753 -0.9806 -1.3177  0.8510
 6664SOL     OW20169   1.506   1.010   7.355  0.2612 -0.6737  0.3404
 6664SOL    HW120170   1.419   0.973   7.323  0.5257 -0.3224 -0.8415
 6664SOL    HW220171   1.512   1.107   7.330  0.2559 -0.2369  1.9725
 6665SOL     OW20172   1.724   4.727   0.471  0.1470  0.0041  0.3076
 6665SOL    HW120173   1.644   4.682   0.432  0.5070  0.5838 -1.1716
 6665SOL    HW220174   1.795   4.658   0.488 -0.4555 -0.4347  1.1285
 6666SOL     OW20175   3.030   3.132   2.269  0.2693 -0.0069 -0.0248
 6666SOL    HW120176   2.980   3.056   2.227  0.7996 -0.8630  0.8304
 6666SOL    HW220177   3.118   3.144   2.224  0.3859 -0.2254  0.1389
 6667SOL     OW20178   7.727   6.260   0.708 -0.1168  0.1054 -0.1794
 6667SOL    HW120179   7.746   6.292   0.616  0.3913 -1.9657 -0.8408
 6667SOL    HW220180   7.802   6.202   0.739 -1.4816 -1.3768  0.4843
 6668SOL     OW20181   1.556   2.788   7.810 -0.3379 -0.0227 -0.1322
 6668SOL    HW120182   1.608   2.872   7.796  0.9527 -0.9539 -1.0387
 6668SOL    HW220183   1.484   2.781   7.742 -0.4951  0.3781 -0.0080
 6669SOL     OW20184   5.857   0.501   6.430  0.1388  0.0897 -0.1448
 6669SOL    HW120185   5.831   0.583   6.482 -1.0387 -0.8605  0.8221
 6669SOL    HW220186   5.800   0.424   6.459  0.9582 -0.9893 -1.3179
 6670SOL     OW20187   6.104   3.962   4.491  0.0882 -0.0466 -0.6129
 6670SOL    HW120188   6.058   4.022   4.426 -1.4948  1.0486  1.4022
 6670SOL    HW220189   6.047   3.882   4.510  0.5924 -0.4194 -0.6519
 6671SOL     OW20190   3.394   0.420   5.852  0.0691 -0.0554 -0.0261
 6671SOL    HW120191   3.409   0.427   5.754  1.1553 -0.7716  0.0710
 6671SOL    HW220192   3.466   0.364   5.893 -0.3218  0.2961  1.1910
 6672SOL     OW20193   0.069   2.656   8.752 -0.5110  0.1104  0.3282
 6672SOL    HW120194   0.156   2.645   8.800  0.2681 -1.3740 -1.3225
 6672SOL    HW220195   0.067   2.746   8.708  0.1909  0.1468  0.3550
 6673SOL     OW20196   2.028   4.042   8.489 -0.7756 -0.0906 -0.4856
 6673SOL    HW120197   1.998   3.976   8.419 -1.5687 -0.4337  0.1615
 6673SOL    HW220198   1.948   4.078   8.537 -0.3757  1.5318 -0.9678
 6674SOL     OW20199   2.552   2.578   3.415  0.3200 -0.3523 -0.0864
 6674SOL    HW120200   2.552   2.478   3.418 -0.0388 -0.4933 -2.4720
 6674SOL    HW220201   2.625   2.609   3.355 -0.1972  0.7616 -0.1613
 6675SOL     OW20202   2.900   3.922   2.019 -0.5915  0.3542  0.3389
 6675SOL    HW120203   2.910   3.903   2.116 -0.6829 -0.3392  0.2147
 6675SOL    HW220204   2.904   3.837   1.967  0.4542  0.7991 -0.3550
 6676SOL     OW20205   3.876   8.694   4.943  0.2662  0.3442 -0.3467
 6676SOL    HW120206   3.869   8.616   5.005  1.7156 -0.4640 -1.1499
 6676SOL    HW220207   3.883   8.778   4.996  0.9310 -0.2849  0.5978
 6677SOL     OW20208   3.540   2.336   6.743 -0.2443  0.2001 -0.6296
 6677SOL    HW120209   3.488   2.416   6.775  1.1682  1.0852 -0.4442
 6677SOL    HW220210   3.548   2.339   6.643 -0.8569 -0.1529 -0.6965
 6678SOL     OW20211   2.791   7.619   2.653  0.5012 -0.3664 -0.1901
 6678SOL    HW120212   2.844   7.703   2.647  0.1027 -0.0416  0.7003
 6678SOL    HW220213   2.723   7.627   2.726  1.1249 -1.8174  0.5967
 6679SOL     OW20214   1.490   8.532   4.694 -0.7674 -0.6538  0.3476
 6679SOL    HW120215   1.425   8.475   4.643  0.2111 -0.2078 -1.4718
 6679SOL    HW220216   1.553   8.472   4.744 -0.2962 -1.1794 -0.8404
 6680SOL     OW20217   7.901   6.593   6.749  0.1931 -0.5141  0.7312
 6680SOL    HW120218   7.959   6.513   6.766 -0.1523 -0.9022  0.1522
 6680SOL    HW220219   7.857   6.583   6.660  1.7912  1.3433 -0.3254
 6681SOL     OW20220   8.759   2.260   2.080  0.3963 -0.1060  0.5977
 6681SOL    HW120221   8.743   2.268   2.178  0.5415 -4.1030  1.1322
 6681SOL    HW220222   8.678   2.218   2.037  1.8845 -2.4522 -0.1143
 6682SOL     OW20223   6.266   2.501   8.095 -0.7636 -0.2246  0.4018
 6682SOL    HW120224   6.180   2.484   8.048 -0.2141 -0.2838 -0.6210
 6682SOL    HW220225   6.310   2.414   8.116 -0.4906 -0.1841  0.0177
 6683SOL     OW20226   8.791   5.343   6.569  0.2647 -0.1663  0.2791
 6683SOL    HW120227   8.801   5.323   6.667 -2.4563 -0.4188  0.5722
 6683SOL    HW220228   8.698   5.375   6.551  0.6867 -0.2067 -2.2627
 6684SOL     OW20229   0.312   8.459   4.443 -0.5700 -0.0739 -0.4450
 6684SOL    HW120230   0.238   8.524   4.463 -0.0530  0.2727  0.3960
 6684SOL    HW220231   0.380   8.503   4.385 -0.4201  0.0067 -0.2090
 6685SOL     OW20232   2.846   3.967   3.401  0.0906  0.2027  0.8142
 6685SOL    HW120233   2.843   4.052   3.349  1.2379 -0.1011  0.2243
 6685SOL    HW220234   2.774   3.905   3.369  0.6589  0.0933 -0.2901
 6686SOL     OW20235   0.098   2.897   4.837 -0.4664  0.0542 -0.2528
 6686SOL    HW120236   0.173   2.830   4.836 -0.2913  0.1529  1.8521
 6686SOL    HW220237   0.112   2.963   4.763  0.1886 -1.3188 -1.4162
 6687SOL     OW20238   5.735   0.044   6.489 -0.0654 -0.4122  0.1391
 6687SOL    HW120239   5.676   0.050   6.408  0.0627  1.5007  0.1382
 6687SOL    HW220240   5.713  -0.039   6.539 -1.7889 -0.4725 -0.6192
 6688SOL     OW20241   8.578   3.999   2.547 -0.1711 -0.3129 -0.0773
 6688SOL    HW120242   8.678   3.996   2.548 -0.0964  0.9933 -1.2063
 6688SOL    HW220243   8.544   3.926   2.487  0.1443 -0.1640 -0.4413
 6689SOL     OW20244   4.665   8.802   8.212 -0.1330 -0.6395 -0.7827
 6689SOL    HW120245   4.602   8.817   8.288 -1.8353  0.1969 -2.3003
 6689SOL    HW220246   4.615   8.769   8.132  1.6869 -2.0379 -1.4325
 6690SOL     OW20247   3.785   8.841   5.768  0.1104  0.0009  0.1728
 6690SOL    HW120248   3.834   8.925   5.789 -0.6275  0.4404  0.1759
 6690SOL    HW220249   3.698   8.863   5.724 -0.1497 -0.7546  0.2857
 6691SOL     OW20250   2.319   4.667   7.057 -0.3115  0.2411 -0.4062
 6691SOL    HW120251   2.314   4.713   7.146  3.9959 -0.3404  0.3610
 6691SOL    HW220252   2.330   4.735   6.985  2.2166  0.6389  0.2826
 6692SOL     OW20253   1.985   7.038   8.513  0.9656  0.6203 -0.0760
 6692SOL    HW120254   1.909   6.975   8.531  0.4187  1.5323  0.9796
 6692SOL    HW220255   2.072   6.993   8.536  0.6090  0.1220  0.3262
 6693SOL     OW20256   4.964   4.361   8.514  0.4052 -0.3885 -0.1824
 6693SOL    HW120257   5.045   4.316   8.476  0.1407 -1.7598  0.7983
 6693SOL    HW220258   4.883   4.329   8.466  0.3531  0.3690 -0.6189
 6694SOL     OW20259   4.828   6.366   8.391  0.3207  0.8623 -0.3869
 6694SOL    HW120260   4.770   6.287   8.411  1.3737 -0.3334 -1.8600
 6694SOL    HW220261   4.900   6.373   8.461  0.4850  0.2359 -0.4829
 6695SOL     OW20262   6.289   2.442   5.819 -0.2922 -0.5300 -0.3447
 6695SOL    HW120263   6.256   2.536   5.821 -1.7396 -1.0074 -0.7335
 6695SOL    HW220264   6.367   2.433   5.881  0.9435  1.2915 -1.5171
 6696SOL     OW20265   6.505   7.109   5.397  0.8090  0.1946 -0.2980
 6696SOL    HW120266   6.594   7.064   5.396  0.1564 -1.1510 -1.2985
 6696SOL    HW220267   6.439   7.054   5.449  0.5485  1.1909  0.4653
 6697SOL     OW20268   3.097   7.299   8.234 -0.1275  0.0980 -0.0011
 6697SOL    HW120269   3.038   7.264   8.307  1.6108 -1.0081  0.9395
 6697SOL    HW220270   3.185   7.327   8.273  0.1719  1.2597 -1.4329
 6698SOL     OW20271   3.759   0.110   2.624  0.5536 -0.0198 -0.2148
 6698SOL    HW120272   3.829   0.136   2.691  0.2441  1.1979 -0.3310
 6698SOL    HW220273   3.676   0.080   2.672 -0.0113  1.7815  0.0009
 6699SOL     OW20274   4.965   4.290   7.301 -0.3674 -0.3224 -0.0928
 6699SOL    HW120275   5.030   4.222   7.336 -1.2302 -0.7810  0.6713
 6699SOL    HW220276   5.001   4.382   7.319  0.2955 -0.5710 -0.1240
 6700SOL     OW20277   7.377   6.054   3.326 -0.3635  0.7470  0.0187
 6700SOL    HW120278   7.306   6.054   3.256 -1.6680  1.2461  1.2882
 6700SOL    HW220279   7.455   6.108   3.294  0.2452 -1.2345 -2.1030
 6701SOL     OW20280   7.498   6.685   8.313 -0.6625 -0.3682  0.1126
 6701SOL    HW120281   7.553   6.608   8.346  0.8707  0.2142 -0.9620
 6701SOL    HW220282   7.484   6.677   8.215 -0.6169  0.6420  0.0144
 6702SOL     OW20283   2.978   5.545   6.755 -0.4313 -0.2777  0.3615
 6702SOL    HW120284   3.033   5.490   6.818  0.5695 -0.4663 -0.6278
 6702SOL    HW220285   2.955   5.490   6.675 -0.8185  0.2556  0.0998
 6703SOL     OW20286   7.244   1.109   2.244 -0.2465 -0.4090  0.0808
 6703SOL    HW120287   7.205   1.155   2.323 -1.0420 -1.0263  0.0615
 6703SOL    HW220288   7.343   1.097   2.257 -0.6898 -2.4927  2.0027
 6704SOL     OW20289   1.573   2.872   4.241  0.4354  0.2378  0.0499
 6704SOL    HW120290   1.502   2.805   4.221  0.2257  0.2398  0.7744
 6704SOL    HW220291   1.532   2.958   4.270  0.7130  0.5757 -0.5309
 6705SOL     OW20292   5.299   6.830   6.337  0.4587 -0.9758 -0.2647
 6705SOL    HW120293   5.288   6.731   6.324  0.4112 -1.0060 -0.0051
 6705SOL    HW220294   5.237   6.861   6.410  1.5165 -1.0160  0.6801
 6706SOL     OW20295   5.588   7.192   7.739  0.3312  0.1869 -0.7830
 6706SOL    HW120296   5.626   7.130   7.670  0.3394 -0.6376 -0.0497
 6706SOL    HW220297   5.489   7.184   7.740  0.4195 -1.5921  0.8846
 6707SOL     OW20298   5.851   3.486   7.709  0.6369  0.5062  0.3706
 6707SOL    HW120299   5.914   3.446   7.775  1.1717  0.1822 -0.3303
 6707SOL    HW220300   5.769   3.429   7.703  0.9056  0.1345  0.2129
 6708SOL     OW20301   8.633   7.122   3.227 -0.3090 -0.0316 -0.0613
 6708SOL    HW120302   8.578   7.049   3.187  0.9633 -0.5889 -0.8693
 6708SOL    HW220303   8.689   7.165   3.156 -1.6346  2.3321  0.2475
 6709SOL     OW20304   4.360   1.991   2.904  0.2946  0.2738 -0.1695
 6709SOL    HW120305   4.453   1.956   2.902  0.8281  1.1023  3.2016
 6709SOL    HW220306   4.308   1.944   2.975 -1.7620  0.1490 -1.6686
 6710SOL     OW20307   7.880   4.696   6.010 -0.2725 -0.4895  0.2051
 6710SOL    HW120308   7.895   4.790   6.040 -0.0603 -0.8006  1.1062
 6710SOL    HW220309   7.783   4.673   6.018 -0.8111  0.4712 -2.5170
 6711SOL     OW20310   4.159   3.187   5.494  0.4386 -0.1381  0.1277
 6711SOL    HW120311   4.225   3.173   5.421  0.6542  1.8522 -0.0961
 6711SOL    HW220312   4.143   3.285   5.507 -2.0237 -0.5328  0.5743
 6712SOL     OW20313   7.616   0.585   2.596 -0.1927 -0.2117 -0.2059
 6712SOL    HW120314   7.662   0.498   2.579  1.8897  0.9885 -1.0369
 6712SOL    HW220315   7.578   0.620   2.510 -4.2771 -1.8918  0.6551
 6713SOL     OW20316   5.507   7.810   5.486 -0.1559  0.3408  0.5727
 6713SOL    HW120317   5.453   7.768   5.559 -0.2695 -0.4394  0.0429
 6713SOL    HW220318   5.507   7.751   5.406 -0.6055  1.5089 -0.3089
 6714SOL     OW20319   2.847   2.402   1.171  0.4098 -0.0150 -0.5163
 6714SOL    HW120320   2.816   2.340   1.100 -0.0589  2.0357 -2.1921
 6714SOL    HW220321   2.907   2.353   1.234  0.2564 -2.0706 -1.8834
 6715SOL     OW20322   6.175   5.137   4.044  0.4122  0.0407  0.3469
 6715SOL    HW120323   6.109   5.082   4.095  0.1846 -0.1850 -0.1862
 6715SOL    HW220324   6.129   5.186   3.970  1.1956 -2.4912 -2.0241
 6716SOL     OW20325   0.937   5.729   1.377  0.0335 -0.1170  0.6892
 6716SOL    HW120326   0.888   5.761   1.459  0.2003  0.4177  0.5887
 6716SOL    HW220327   1.034   5.753   1.386  0.0774 -0.1901  0.4031
 6717SOL     OW20328   7.573   5.039   8.504  0.1128 -0.1728  0.2505
 6717SOL    HW120329   7.484   5.054   8.547 -0.4090  3.2893 -1.6099
 6717SOL    HW220330   7.646   5.058   8.569 -0.6242  1.7335  0.6045
 6718SOL     OW20331   8.521   7.925   3.335 -0.0430  0.5076 -0.2518
 6718SOL    HW120332   8.429   7.901   3.303  0.7113 -2.9282 -0.3093
 6718SOL    HW220333   8.539   7.881   3.423  1.0822  2.3155  0.4775
 6719SOL     OW20334   1.906   7.062   0.973  0.8471  0.7176 -0.2766
 6719SOL    HW120335   1.879   6.981   1.024 -0.8800  1.8162  0.6900
 6719SOL    HW220336   1.904   7.043   0.875 -0.6453 -0.1131 -0.1081
 6720SOL     OW20337   0.730   2.940   2.902 -0.0143 -0.6386  0.4138
 6720SOL    HW120338   0.679   2.889   2.834 -0.5659  0.1926  0.1858
 6720SOL    HW220339   0.705   2.909   2.994 -2.2051  0.8331  0.3923
 6721SOL     OW20340   3.009   7.684   3.601  0.0150 -0.1693  0.5592
 6721SOL    HW120341   3.051   7.630   3.674 -1.3081 -1.1491  0.6231
 6721SOL    HW220342   2.969   7.623   3.533  1.4379  0.7153 -1.1594
 6722SOL     OW20343   6.583   3.938   4.978 -0.4313  0.5499 -0.2134
 6722SOL    HW120344   6.598   3.858   4.919 -1.0026 -0.2674  0.7083
 6722SOL    HW220345   6.670   3.985   4.992 -0.1256  0.2292 -0.9551
 6723SOL     OW20346   8.593   2.018   5.296  0.1246  0.4531  0.0228
 6723SOL    HW120347   8.619   1.928   5.260 -0.1074  0.6752 -0.7101
 6723SOL    HW220348   8.658   2.086   5.263  0.9689  0.3947  1.4992
 6724SOL     OW20349   8.225   7.203   6.535 -0.1100  0.4042  0.1366
 6724SOL    HW120350   8.159   7.129   6.521 -1.4072  1.7879 -1.6508
 6724SOL    HW220351   8.305   7.169   6.584 -0.9947 -1.9629  0.0401
 6725SOL     OW20352   2.148   1.514   3.089  0.1232  0.2757  0.3533
 6725SOL    HW120353   2.133   1.612   3.104 -2.3790 -0.1686  1.3182
 6725SOL    HW220354   2.108   1.488   3.002  1.8825  0.2990 -0.4835
 6726SOL     OW20355   3.961   5.913   5.227 -0.2269 -0.0531 -0.2516
 6726SOL    HW120356   3.914   5.992   5.265 -0.9845 -0.7949  0.3832
 6726SOL    HW220357   4.006   5.938   5.141 -1.6129  0.7161 -0.7739
 6727SOL     OW20358   1.720   0.603   0.521  0.2958  0.2599 -0.3316
 6727SOL    HW120359   1.634   0.567   0.555  1.7138 -1.6374  1.5134
 6727SOL    HW220360   1.733   0.575   0.425 -0.7179 -0.1810 -0.3517
 6728SOL     OW20361   0.183   1.884   5.057 -0.0140 -0.5639  0.2783
 6728SOL    HW120362   0.266   1.901   5.110 -0.9157  0.9804  1.2922
 6728SOL    HW220363   0.139   1.801   5.090 -0.1191 -0.0770  1.4163
 6729SOL     OW20364   1.777   0.129   8.103  0.4619  0.4996 -0.3539
 6729SOL    HW120365   1.743   0.123   8.009 -1.8411 -0.4990  0.4619
 6729SOL    HW220366   1.829   0.047   8.126  1.6009  1.0405 -0.9280
 6730SOL     OW20367   2.114   0.755   1.013 -0.6038 -0.0941 -0.4527
 6730SOL    HW120368   2.146   0.762   1.107  3.7537 -1.0267 -1.6571
 6730SOL    HW220369   2.077   0.663   0.997 -0.4180 -0.2664  0.0831
 6731SOL     OW20370   0.999   2.489   8.854 -0.1120 -0.3724  0.5743
 6731SOL    HW120371   0.932   2.546   8.806 -0.4508 -1.5871 -0.4767
 6731SOL    HW220372   1.078   2.475   8.795 -0.2534 -1.3743  0.6073
 6732SOL     OW20373   7.119   1.470   3.205  0.6637  0.1966 -0.3807
 6732SOL    HW120374   7.047   1.478   3.136  0.6967  0.5810 -0.3671
 6732SOL    HW220375   7.170   1.555   3.212 -1.4159  1.3752  2.4156
 6733SOL     OW20376   1.429   4.083   2.965  0.2345 -0.2651  0.2306
 6733SOL    HW120377   1.520   4.086   3.006  0.1169 -1.7695  0.6642
 6733SOL    HW220378   1.370   4.151   3.009  1.2969  1.1737 -0.4937
 6734SOL     OW20379   2.417   8.318   2.611 -0.0656  0.4680  0.1129
 6734SOL    HW120380   2.417   8.338   2.513 -0.5392  0.2788  0.0690
 6734SOL    HW220381   2.509   8.292   2.640 -0.4544 -2.4145 -0.9009
 6735SOL     OW20382   7.266   5.906   5.379  0.2797  0.3223 -0.6561
 6735SOL    HW120383   7.268   5.897   5.479 -0.2118  1.8068 -0.4880
 6735SOL    HW220384   7.230   5.821   5.339  1.8635 -0.8489  0.3045
 6736SOL     OW20385   7.796   3.589   7.425  0.5607  0.1359 -0.1847
 6736SOL    HW120386   7.786   3.553   7.518  0.8886  0.0837 -0.1686
 6736SOL    HW220387   7.750   3.677   7.418 -0.3401 -0.3265 -0.2523
 6737SOL     OW20388   3.481   6.310   4.738  0.2601  0.4399 -0.1441
 6737SOL    HW120389   3.384   6.308   4.762  0.3514 -2.1233  0.3114
 6737SOL    HW220390   3.503   6.397   4.694 -2.1532  1.2074  0.0321
 6738SOL     OW20391   0.846   8.627   5.599 -0.1879 -0.0926 -0.6174
 6738SOL    HW120392   0.845   8.532   5.567 -2.1107 -0.5672  0.6563
 6738SOL    HW220393   0.752   8.657   5.617  0.5119  1.3500  0.9603
 6739SOL     OW20394   4.041   0.238   3.616  0.2920 -0.2015  0.5627
 6739SOL    HW120395   4.090   0.313   3.572 -1.6903  0.7437 -0.1668
 6739SOL    HW220396   4.048   0.248   3.715 -0.3531  1.2814  0.4888
 6740SOL     OW20397   2.224   4.340   2.268 -0.3834 -0.0686 -0.4069
 6740SOL    HW120398   2.226   4.432   2.306 -0.0592 -1.1690  2.5346
 6740SOL    HW220399   2.301   4.327   2.207  0.1450  1.3180 -0.0648
 6741SOL     OW20400   1.463   0.319   4.749  0.3292 -0.8216  0.7104
 6741SOL    HW120401   1.403   0.388   4.790  0.1440 -0.1665 -0.6053
 6741SOL    HW220402   1.558   0.336   4.777  0.0442 -1.3404  2.0974
 6742SOL     OW20403   6.841   4.070   1.528  0.6392  0.1356  0.0482
 6742SOL    HW120404   6.899   4.133   1.580 -0.4727  2.8642 -1.7820
 6742SOL    HW220405   6.898   4.002   1.482  2.2655  1.7756 -0.4524
 6743SOL     OW20406   2.331   7.325   5.369 -0.0820  0.0247 -0.3414
 6743SOL    HW120407   2.371   7.413   5.391 -0.1105 -0.1706  0.4971
 6743SOL    HW220408   2.314   7.273   5.452 -3.5375  0.7209 -0.4406
 6744SOL     OW20409   5.356   0.212   3.767  0.1131  0.0862  0.2124
 6744SOL    HW120410   5.409   0.132   3.740  0.9961  0.2092  1.4849
 6744SOL    HW220411   5.334   0.266   3.686 -4.8119 -3.8440 -1.5580
 6745SOL     OW20412   6.217   3.564   8.752 -0.1451 -0.1294 -0.0363
 6745SOL    HW120413   6.153   3.524   8.686 -0.0719 -0.7265  0.2481
 6745SOL    HW220414   6.310   3.535   8.730 -0.3276 -2.2657  1.6448
 6746SOL     OW20415   5.536   3.589   6.913  0.1430 -0.1085 -0.3217
 6746SOL    HW120416   5.630   3.601   6.879  0.2865  0.4120  0.2417
 6746SOL    HW220417   5.495   3.510   6.868  0.7079 -0.0960 -0.8822
 6747SOL     OW20418   8.343   0.928   2.007  0.4513 -0.8310 -0.4418
 6747SOL    HW120419   8.429   0.968   2.039 -0.4052  2.5731 -1.9465
 6747SOL    HW220420   8.345   0.922   1.907 -1.0084 -0.8310 -0.4796
 6748SOL     OW20421   5.970   3.512   4.055 -0.3190 -1.0956  0.0944
 6748SOL    HW120422   5.905   3.520   3.979 -1.0662  0.0628  0.8132
 6748SOL    HW220423   5.942   3.438   4.116 -0.5480 -1.0869  0.0000
 6749SOL     OW20424   0.163   4.914   6.692  0.3831  0.3665 -0.1266
 6749SOL    HW120425   0.110   4.898   6.608  0.0637 -0.6604  0.2589
 6749SOL    HW220426   0.214   4.832   6.716  1.8598  1.2007 -0.2488
 6750SOL     OW20427   8.477   7.430   0.830 -0.3525  0.5745  0.4598
 6750SOL    HW120428   8.573   7.410   0.810 -0.2512  0.2242  1.2597
 6750SOL    HW220429   8.472   7.493   0.908 -0.8037 -1.4503  2.1440
 6751SOL     OW20430   2.383   6.723   0.626  0.1481 -0.8546  0.5552
 6751SOL    HW120431   2.283   6.718   0.621  0.2351 -2.3246 -0.8495
 6751SOL    HW220432   2.416   6.790   0.560  0.0741  0.2430  1.6096
 6752SOL     OW20433   5.907   2.854   1.434 -0.0044 -0.3492  0.1773
 6752SOL    HW120434   5.909   2.777   1.369  0.2404 -1.4457  1.4302
 6752SOL    HW220435   5.997   2.898   1.436 -0.3498  0.4646 -1.0807
 6753SOL     OW20436   4.636   3.572   7.615 -0.4495  0.0660  0.5495
 6753SOL    HW120437   4.642   3.474   7.635 -1.1839 -0.0207  0.3989
 6753SOL    HW220438   4.632   3.585   7.516  1.3257  0.3703  0.4952
 6754SOL     OW20439   6.537   4.563   7.434 -0.3353 -0.2388  0.3943
 6754SOL    HW120440   6.477   4.633   7.394 -1.9046 -1.3455  0.7120
 6754SOL    HW220441   6.571   4.596   7.523  0.8991  1.0640 -0.5089
 6755SOL     OW20442   0.538   8.792   2.641 -0.4608  0.3661 -0.3781
 6755SOL    HW120443   0.582   8.858   2.702  0.8547  0.9220 -1.8589
 6755SOL    HW220444   0.589   8.787   2.555 -1.9238 -0.8222 -1.2244
 6756SOL     OW20445   4.989   4.294   4.141  0.4202  0.3269  0.0196
 6756SOL    HW120446   4.946   4.369   4.191  0.6858  1.3197 -1.1901
 6756SOL    HW220447   4.931   4.267   4.064  1.8238  1.6354 -1.5905
 6757SOL     OW20448   0.536   3.786   3.465  0.2858  0.2860  0.5487
 6757SOL    HW120449   0.573   3.801   3.373  1.0566  0.9224  0.9569
 6757SOL    HW220450   0.602   3.736   3.520 -0.1664 -0.0717  0.7727
 6758SOL     OW20451   7.395   6.333   5.261  0.4175  0.4659 -0.1676
 6758SOL    HW120452   7.493   6.313   5.262  0.3008 -0.1074  1.1069
 6758SOL    HW220453   7.344   6.249   5.244  0.1435  0.8225 -1.1786
 6759SOL     OW20454   8.721   7.796   1.464  0.2653  0.1192 -0.4571
 6759SOL    HW120455   8.761   7.815   1.554  0.0056 -0.1641 -0.2794
 6759SOL    HW220456   8.716   7.881   1.412  0.3161  0.3075 -0.1607
 6760SOL     OW20457   2.485   6.558   8.737 -0.6064 -0.1117 -0.6140
 6760SOL    HW120458   2.490   6.658   8.732  1.9999 -0.1905 -0.6648
 6760SOL    HW220459   2.409   6.532   8.797 -0.2684  1.9278  0.8051
 6761SOL     OW20460   1.489   8.799   8.838  0.0051 -0.0750  0.2968
 6761SOL    HW120461   1.507   8.855   8.919  4.4034 -0.6335 -0.0373
 6761SOL    HW220462   1.497   8.856   8.756  0.8674 -0.4711  0.0966
 6762SOL     OW20463   3.342   8.371   7.325  0.1527  0.1396 -0.1089
 6762SOL    HW120464   3.433   8.372   7.366 -0.5538 -0.4681  1.5446
 6762SOL    HW220465   3.335   8.443   7.257  1.5384  0.8610  0.4919
 6763SOL     OW20466   3.548   4.928   2.469  0.2628  0.2217 -0.8344
 6763SOL    HW120467   3.644   4.906   2.457  0.6352 -0.0834  1.9937
 6763SOL    HW220468   3.539   5.004   2.534 -1.3851  0.4436 -1.2842
 6764SOL     OW20469   6.548   5.201   5.299  0.1588 -0.2546 -0.2353
 6764SOL    HW120470   6.508   5.117   5.335 -0.6661  0.3791  0.3712
 6764SOL    HW220471   6.634   5.180   5.253  0.7291 -1.2492  1.2006
 6765SOL     OW20472   6.184   6.040   1.308  0.2175  0.7608 -0.0639
 6765SOL    HW120473   6.188   6.107   1.233  1.6643  1.3393  0.4791
 6765SOL    HW220474   6.245   5.964   1.288  0.6444  0.9371  0.5133
 6766SOL     OW20475   3.647   0.393   8.416 -0.3531 -0.4037  0.0274
 6766SOL    HW120476   3.669   0.394   8.319 -0.7247 -0.6568 -0.0623
 6766SOL    HW220477   3.731   0.402   8.470 -0.2716  1.0405 -0.3213
 6767SOL     OW20478   1.997   6.486   3.485 -0.0161 -0.0838  0.0369
 6767SOL    HW120479   1.978   6.533   3.399  1.4840 -1.2901 -0.9896
 6767SOL    HW220480   1.910   6.463   3.529 -0.9807 -2.2983 -2.7415
 6768SOL     OW20481   3.042   7.789   8.840 -0.2513 -0.0783 -0.4338
 6768SOL    HW120482   3.128   7.840   8.850 -0.9021  1.1792 -1.0337
 6768SOL    HW220483   3.040   7.744   8.751  0.4316 -1.4079  0.1944
 6769SOL     OW20484   2.060   6.525   8.671  0.3040 -0.3771  0.1164
 6769SOL    HW120485   2.129   6.507   8.601  1.1209 -0.3468  0.8982
 6769SOL    HW220486   2.051   6.446   8.731 -0.0282 -0.2118  0.2893
 6770SOL     OW20487   2.793   6.554   0.744  0.2520  0.0692  0.1674
 6770SOL    HW120488   2.836   6.632   0.790 -2.0193  1.4300  0.1323
 6770SOL    HW220489   2.821   6.552   0.648 -1.9010  2.7871 -0.6709
 6771SOL     OW20490   8.663   5.696   3.922 -0.3679 -0.2941  0.3338
 6771SOL    HW120491   8.666   5.673   3.825  0.1009 -0.5843  0.4158
 6771SOL    HW220492   8.608   5.779   3.934 -1.0691 -0.6807 -0.0886
 6772SOL     OW20493   5.451   2.664   3.238  0.4114 -0.0942  0.6015
 6772SOL    HW120494   5.396   2.717   3.173 -1.1507 -2.1271  0.1634
 6772SOL    HW220495   5.395   2.639   3.317  1.0832 -1.1135  0.7745
 6773SOL     OW20496   0.452   1.414   2.076 -0.1621  0.3026 -0.2244
 6773SOL    HW120497   0.403   1.438   1.992 -0.0283  0.0123 -0.3887
 6773SOL    HW220498   0.551   1.417   2.059 -0.1425 -1.4965 -0.5885
 6774SOL     OW20499   6.572   7.888   8.024 -0.3345 -0.0929 -0.0177
 6774SOL    HW120500   6.573   7.817   8.094  1.2179  0.4615  0.5831
 6774SOL    HW220501   6.493   7.876   7.964 -1.5779 -0.7236  1.6774
 6775SOL     OW20502   2.194   3.513   3.118 -0.5574  0.3160  0.4806
 6775SOL    HW120503   2.240   3.486   3.203 -1.1422  2.3805  1.5362
 6775SOL    HW220504   2.140   3.595   3.135  0.3506  1.5830 -2.2234
 6776SOL     OW20505   4.435   7.473   2.640 -0.4232 -0.5581  0.7538
 6776SOL    HW120506   4.511   7.458   2.704 -0.3063  1.9445  1.3369
 6776SOL    HW220507   4.374   7.394   2.640  1.4653 -2.0972  1.2510
 6777SOL     OW20508   8.117   2.257   8.816  0.2778 -0.1530 -0.3646
 6777SOL    HW120509   8.137   2.219   8.726 -2.6483  2.0542 -2.1499
 6777SOL    HW220510   8.077   2.187   8.875 -0.2928 -1.0461 -1.7772
 6778SOL     OW20511   1.514   0.907   2.893  0.0540  0.1748  0.4616
 6778SOL    HW120512   1.420   0.925   2.866  0.3646 -0.2107 -0.9405
 6778SOL    HW220513   1.555   0.991   2.928 -0.7304  0.3986  0.8691
 6779SOL     OW20514   1.179   5.950   2.959 -0.0562  0.2321  0.1435
 6779SOL    HW120515   1.142   6.043   2.950 -2.4115 -0.5126  1.2318
 6779SOL    HW220516   1.160   5.898   2.876  0.0184  0.3330  0.0637
 6780SOL     OW20517   4.509   3.210   7.835 -0.0380  0.0675  0.0668
 6780SOL    HW120518   4.423   3.240   7.793 -0.2016  2.5008  1.9330
 6780SOL    HW220519   4.500   3.114   7.862 -1.3138 -0.4000 -1.7675
 6781SOL     OW20520   0.592   6.109   8.853 -0.1247  0.5901  0.0205
 6781SOL    HW120521   0.587   6.207   8.871 -0.5305  0.2886  1.7438
 6781SOL    HW220522   0.687   6.078   8.864 -0.1214  0.6735  0.2470
 6782SOL     OW20523   3.227   0.756   6.041 -0.0998  0.7977 -0.4725
 6782SOL    HW120524   3.232   0.680   6.106 -1.1731  1.2648  0.1889
 6782SOL    HW220525   3.310   0.758   5.985  1.0225  0.6043  1.1207
 6783SOL     OW20526   7.845   6.548   0.224  0.1980 -0.1480  0.4124
 6783SOL    HW120527   7.900   6.549   0.307 -0.2875  0.9757  0.7389
 6783SOL    HW220528   7.905   6.539   0.144  0.7691  0.0851  0.8088
 6784SOL     OW20529   1.290   7.268   1.292 -0.7664  0.6683  0.5959
 6784SOL    HW120530   1.218   7.199   1.298  1.2838 -1.6002  0.5308
 6784SOL    HW220531   1.310   7.288   1.196 -0.5469  0.4052  0.5831
 6785SOL     OW20532   0.902   7.041   8.460  0.8700 -0.2192 -0.7110
 6785SOL    HW120533   0.892   7.048   8.361  0.4021  1.6798 -0.5668
 6785SOL    HW220534   0.981   7.094   8.489  1.5680 -1.5440 -0.1458
 6786SOL     OW20535   4.811   4.811   8.163 -0.1190  0.4552 -0.2368
 6786SOL    HW120536   4.725   4.855   8.189  0.2432  0.4623  1.0356
 6786SOL    HW220537   4.876   4.820   8.238 -0.2485 -2.8667  0.4220
 6787SOL     OW20538   0.758   6.982   4.503 -0.6001 -0.4929  0.2181
 6787SOL    HW120539   0.797   6.896   4.536  0.8161 -0.1311 -0.4590
 6787SOL    HW220540   0.763   7.051   4.575  2.9813  0.4535 -0.7557
 6788SOL     OW20541   5.206   6.762   1.689 -0.3972 -0.0768 -0.5225
 6788SOL    HW120542   5.270   6.701   1.642  0.2177 -0.9697  1.3663
 6788SOL    HW220543   5.114   6.748   1.653 -0.4347 -2.8030  0.3970
 6789SOL     OW20544   6.971   1.100   6.505 -0.2106 -0.5745  0.5047
 6789SOL    HW120545   6.883   1.069   6.468 -1.2371  1.4765  1.0958
 6789SOL    HW220546   6.969   1.199   6.517  2.6715 -0.2713 -0.7067
 6790SOL     OW20547   4.138   6.073   7.810  0.1367 -0.6650  0.1886
 6790SOL    HW120548   4.205   6.147   7.824 -0.0316  0.0620 -2.3795
 6790SOL    HW220549   4.046   6.111   7.814 -0.1018 -1.3091  1.6738
 6791SOL     OW20550   1.931   0.088   6.683  0.0279 -0.1441  0.1148
 6791SOL    HW120551   1.923   0.151   6.606  0.4070  1.7250  1.5326
 6791SOL    HW220552   2.027   0.067   6.699  0.0586  0.5401  0.8764
 6792SOL     OW20553   8.162   2.825   1.862  0.6601 -0.2512 -0.3446
 6792SOL    HW120554   8.240   2.887   1.856 -0.6672  1.3987 -1.7256
 6792SOL    HW220555   8.090   2.868   1.917  0.4783 -1.4974  0.4264
 6793SOL     OW20556   5.648   0.138   3.693 -0.2059 -0.8872  0.4155
 6793SOL    HW120557   5.738   0.168   3.724 -0.6253  0.6307  0.2590
 6793SOL    HW220558   5.655   0.098   3.602  0.1459  0.4756 -0.1880
 6794SOL     OW20559   2.357   8.051   6.208 -0.0665  0.3040 -0.0815
 6794SOL    HW120560   2.281   8.108   6.241 -1.5169  0.1146 -2.8141
 6794SOL    HW220561   2.339   8.024   6.114  1.9931 -2.3122  0.1774
 6795SOL     OW20562   5.908   0.248   8.735 -0.1918 -0.2534  0.0327
 6795SOL    HW120563   6.002   0.249   8.770  0.1362  0.5475 -0.8308
 6795SOL    HW220564   5.846   0.282   8.805  0.1917 -0.5466  0.5200
 6796SOL     OW20565   8.441   2.570   3.661 -0.0938  0.0150  0.1020
 6796SOL    HW120566   8.481   2.482   3.683 -0.9787 -0.0904  1.4209
 6796SOL    HW220567   8.423   2.621   3.745 -1.7269  0.4853 -0.4830
 6797SOL     OW20568   0.526   2.633   3.826  0.1529  0.0343 -0.3129
 6797SOL    HW120569   0.604   2.649   3.885 -0.5804  0.9169  0.4503
 6797SOL    HW220570   0.554   2.644   3.730  0.8234  0.9872 -0.0228
 6798SOL     OW20571   5.101   6.041   7.885 -0.2918 -0.3316  0.4160
 6798SOL    HW120572   5.158   6.123   7.893 -1.4403  0.4381  0.8601
 6798SOL    HW220573   5.156   5.961   7.907  1.3522  0.0973 -1.7293
 6799SOL     OW20574   1.211   4.751   7.509  0.1595  0.0711  0.1532
 6799SOL    HW120575   1.250   4.754   7.601  0.3673  2.3242  0.0365
 6799SOL    HW220576   1.255   4.820   7.452 -2.0698  0.8322 -0.7648
 6800SOL     OW20577   0.672   1.153   2.720 -0.2625  0.1516  0.9103
 6800SOL    HW120578   0.615   1.210   2.778 -1.6959  0.2111 -0.4812
 6800SOL    HW220579   0.745   1.110   2.774  0.2417  2.4791  2.1658
 6801SOL     OW20580   8.668   4.453   7.484 -0.1412  0.1991 -0.4007
 6801SOL    HW120581   8.659   4.356   7.506 -2.0785  0.4034 -0.1253
 6801SOL    HW220582   8.761   4.472   7.453  0.5357 -1.5512  0.4527
 6802SOL     OW20583   1.577   6.269   2.859 -0.9807  0.1603 -0.6186
 6802SOL    HW120584   1.513   6.269   2.936  0.8961  0.0388  1.0083
 6802SOL    HW220585   1.592   6.364   2.830 -1.0592  0.2873 -0.2623
 6803SOL     OW20586   7.751   4.957   3.433  0.8098  0.0675  0.4065
 6803SOL    HW120587   7.735   4.876   3.490 -0.0775 -0.8178 -1.0131
 6803SOL    HW220588   7.840   4.949   3.388  1.1797  0.3958  1.0774
 6804SOL     OW20589   2.411   3.534   2.930 -0.0037  0.6092  0.1176
 6804SOL    HW120590   2.437   3.630   2.943 -1.0012  0.8112  0.6673
 6804SOL    HW220591   2.335   3.511   2.990 -0.4587 -0.2405 -0.7572
 6805SOL     OW20592   0.563   0.265   7.762  0.0069  0.3024 -0.0373
 6805SOL    HW120593   0.525   0.244   7.852 -1.8669 -0.6749 -0.9937
 6805SOL    HW220594   0.542   0.190   7.699  1.9650  0.6016 -1.1280
 6806SOL     OW20595   4.439   5.950   5.924 -0.4011 -0.0381 -0.6071
 6806SOL    HW120596   4.471   5.917   6.013  0.7841  1.1526 -0.5618
 6806SOL    HW220597   4.514   5.997   5.877 -1.0825 -0.4241 -2.1388
 6807SOL     OW20598   4.087   8.724   0.749 -0.2777 -0.2316 -0.4035
 6807SOL    HW120599   4.145   8.754   0.824 -0.6792 -0.1962 -0.1021
 6807SOL    HW220600   4.049   8.803   0.702  0.2204 -0.2481 -0.8481
 6808SOL     OW20601   1.782   3.836   0.348 -0.7268 -0.2519 -0.1242
 6808SOL    HW120602   1.843   3.861   0.273 -0.4843  0.8648  0.4239
 6808SOL    HW220603   1.753   3.741   0.337  1.8214 -1.1207  0.0955
 6809SOL     OW20604   4.027   4.060   8.164  0.1249 -0.4063 -0.4521
 6809SOL    HW120605   3.970   4.102   8.235 -1.0293 -1.6745 -0.5751
 6809SOL    HW220606   4.013   3.961   8.165 -0.0282 -0.4552 -2.5344
 6810SOL     OW20607   5.599   7.159   0.201  0.3898  0.1597  0.1681
 6810SOL    HW120608   5.674   7.095   0.215 -0.6892 -0.8107  2.0148
 6810SOL    HW220609   5.513   7.109   0.198 -0.2701  1.2971 -1.3387
 6811SOL     OW20610   6.610   5.181   6.107 -0.2598  0.5748  0.2783
 6811SOL    HW120611   6.535   5.241   6.076  0.1750  2.0644  1.9537
 6811SOL    HW220612   6.609   5.097   6.054 -2.7244  0.8315 -0.1982
 6812SOL     OW20613   5.555   1.586   0.129 -0.2576  0.1253 -0.0637
 6812SOL    HW120614   5.610   1.587   0.213 -0.2791 -0.5014 -0.0381
 6812SOL    HW220615   5.513   1.676   0.117  0.1692  0.3860  0.3131
 6813SOL     OW20616   3.124   5.321   7.752  0.3405  0.7795 -0.0565
 6813SOL    HW120617   3.068   5.303   7.671 -0.6876 -2.2741  1.1911
 6813SOL    HW220618   3.064   5.339   7.830  1.1101 -0.7048  0.9216
 6814SOL     OW20619   6.694   6.912   8.373  0.3956 -0.0740 -0.3234
 6814SOL    HW120620   6.654   6.864   8.295  0.6568 -0.6110 -0.1280
 6814SOL    HW220621   6.680   7.011   8.362 -0.5426 -0.2176 -0.5066
 6815SOL     OW20622   1.701   8.320   5.126 -0.3012 -0.4194  0.3512
 6815SOL    HW120623   1.696   8.246   5.194 -2.2319 -1.1926 -0.5384
 6815SOL    HW220624   1.611   8.364   5.118  1.2786  3.7362  2.5571
 6816SOL     OW20625   7.536   3.013   4.436 -0.3471 -0.1598 -0.3563
 6816SOL    HW120626   7.537   2.915   4.417  3.7165  0.0693 -2.2274
 6816SOL    HW220627   7.598   3.033   4.512  0.9564  1.1738 -1.7278
 6817SOL     OW20628   5.171   0.972   2.381  0.3129  0.1165 -0.4250
 6817SOL    HW120629   5.227   0.893   2.352  0.0267 -0.1811 -0.1732
 6817SOL    HW220630   5.084   0.971   2.332  0.3293  0.3060 -0.4578
 6818SOL     OW20631   2.563   6.569   3.683 -0.3373  0.4348  0.1595
 6818SOL    HW120632   2.541   6.590   3.588  1.5284  1.0524 -0.1832
 6818SOL    HW220633   2.480   6.575   3.739 -1.2055  1.4829 -1.1786
 6819SOL     OW20634   3.977   7.723   6.083 -0.5787  0.1146 -0.3375
 6819SOL    HW120635   3.908   7.668   6.130 -1.3084  0.6133 -0.8028
 6819SOL    HW220636   4.060   7.729   6.139 -0.2830 -1.8710 -0.4939
 6820SOL     OW20637   5.926   6.952   1.417  0.0490  0.7144 -0.1706
 6820SOL    HW120638   5.896   7.038   1.458 -2.3190 -1.0347  2.0237
 6820SOL    HW220639   5.960   6.891   1.488  1.3249 -0.3646 -1.6327
 6821SOL     OW20640   2.818   4.510   0.415  0.2903  0.2425  0.3345
 6821SOL    HW120641   2.758   4.499   0.495 -2.2691  0.5400 -1.4112
 6821SOL    HW220642   2.855   4.603   0.413  2.3629 -0.4349  2.3475
 6822SOL     OW20643   4.072   3.116   2.399  0.4247 -0.1185  0.0649
 6822SOL    HW120644   4.139   3.041   2.403  0.9981  0.3976  0.3416
 6822SOL    HW220645   4.104   3.192   2.456 -0.7698 -0.1446  0.8126
 6823SOL     OW20646   2.355   6.606   7.568  0.4553 -0.0219 -0.0206
 6823SOL    HW120647   2.381   6.510   7.565  2.0968  0.3162  1.3628
 6823SOL    HW220648   2.406   6.657   7.499  0.8462  0.0845  0.3369
 6824SOL     OW20649   1.385   6.796   6.277  0.2490  0.6743  0.8804
 6824SOL    HW120650   1.410   6.708   6.238 -0.9740  0.4126  0.6553
 6824SOL    HW220651   1.467   6.850   6.292  0.9484 -0.2093  0.3177
 6825SOL     OW20652   4.061   2.775   8.486  0.3082 -0.2386  0.2631
 6825SOL    HW120653   4.136   2.739   8.540  1.4592  1.4635 -0.1098
 6825SOL    HW220654   4.091   2.858   8.438 -1.1130 -0.8091 -1.7675
 6826SOL     OW20655   8.742   1.431   4.894 -0.3804 -0.4718 -0.4626
 6826SOL    HW120656   8.662   1.467   4.847  0.4010  1.0453 -0.7169
 6826SOL    HW220657   8.783   1.358   4.839 -0.3474  0.2410 -1.4211
 6827SOL     OW20658   1.847   4.684   5.787 -0.1603  0.4575  0.3961
 6827SOL    HW120659   1.834   4.589   5.756 -1.0113  1.1070 -1.3625
 6827SOL    HW220660   1.881   4.683   5.881  0.3567 -1.5935  0.2462
 6828SOL     OW20661   2.972   6.409   5.920  0.1822 -0.1746  0.0512
 6828SOL    HW120662   3.026   6.452   5.993 -0.7641  0.1536  0.5677
 6828SOL    HW220663   3.034   6.358   5.859  1.1084  0.4482  0.4454
 6829SOL     OW20664   2.810   2.651   6.454  0.5585 -0.5051  0.2618
 6829SOL    HW120665   2.877   2.722   6.432  1.1985 -1.1996 -0.0977
 6829SOL    HW220666   2.798   2.645   6.553  1.7983 -1.0397  0.4013
 6830SOL     OW20667   7.157   8.498   0.132 -0.0759  0.5616  0.0012
 6830SOL    HW120668   7.150   8.574   0.196  1.9544  0.6853  0.1536
 6830SOL    HW220669   7.076   8.440   0.139 -0.6460  1.5015  1.4754
 6831SOL     OW20670   5.645   7.774   8.434 -0.4974 -0.1948 -0.1237
 6831SOL    HW120671   5.709   7.820   8.496 -1.8716 -1.5452  2.4049
 6831SOL    HW220672   5.697   7.725   8.364  1.2116 -0.6013  1.3691
 6832SOL     OW20673   6.705   3.652   7.514  0.3555 -0.5806 -0.2383
 6832SOL    HW120674   6.605   3.648   7.505  0.3973 -1.1040 -0.4619
 6832SOL    HW220675   6.738   3.571   7.562  0.7266 -0.6926 -0.6752
 6833SOL     OW20676   3.638   7.037   1.295 -0.0527  0.1864 -0.1809
 6833SOL    HW120677   3.669   6.958   1.244 -1.4139 -0.1273 -0.5677
 6833SOL    HW220678   3.595   7.102   1.232 -1.5394 -0.0996  0.4950
 6834SOL     OW20679   3.435   5.856   7.029  0.1968  0.2312 -0.8152
 6834SOL    HW120680   3.374   5.811   7.094 -0.0294  0.2454 -1.0161
 6834SOL    HW220681   3.429   5.810   6.940 -0.0098  0.6274 -1.0128
 6835SOL     OW20682   3.476   7.795   6.985  0.3171 -0.1331  0.0170
 6835SOL    HW120683   3.429   7.879   6.959  1.3706  0.0404 -1.4375
 6835SOL    HW220684   3.473   7.784   7.084 -0.5971  1.1579  0.1467
 6836SOL     OW20685   7.715   3.024   5.275 -0.3904  0.5839 -0.0419
 6836SOL    HW120686   7.624   2.992   5.250 -0.2426  0.8505 -0.9504
 6836SOL    HW220687   7.747   3.090   5.208  0.2561  0.9037  0.5646
 6837SOL     OW20688   4.099   7.711   8.710  0.1085 -0.5716 -0.6716
 6837SOL    HW120689   4.198   7.714   8.696  0.1082 -1.8828 -1.0319
 6837SOL    HW220690   4.080   7.687   8.805  0.1020  2.3269  0.1476
 6838SOL     OW20691   7.321   6.934   8.029 -0.2673 -0.0973 -0.2023
 6838SOL    HW120692   7.229   6.952   7.996 -0.1355 -1.9525 -1.8264
 6838SOL    HW220693   7.328   6.955   8.126 -2.3294  0.2402 -0.0992
 6839SOL     OW20694   4.919   6.575   6.327 -0.0741 -0.4310 -0.3522
 6839SOL    HW120695   4.832   6.532   6.348 -0.0944  0.0944  0.7103
 6839SOL    HW220696   4.928   6.587   6.228 -1.6617  0.4338 -0.4113
 6840SOL     OW20697   5.837   4.401   0.769  0.6839 -0.7072 -0.0451
 6840SOL    HW120698   5.852   4.454   0.852  0.0290 -0.0547 -0.3363
 6840SOL    HW220699   5.906   4.426   0.701  0.6533 -0.5640 -0.0240
 6841SOL     OW20700   1.735   6.268   4.096  0.3641 -0.4239 -0.5360
 6841SOL    HW120701   1.692   6.355   4.073 -1.4069 -1.0924  0.0474
 6841SOL    HW220702   1.832   6.271   4.072  0.0155  1.1519 -1.9356
 6842SOL     OW20703   6.376   1.130   6.889  0.1791  0.1992 -0.6708
 6842SOL    HW120704   6.458   1.165   6.934  0.6701 -1.7892  0.0584
 6842SOL    HW220705   6.400   1.098   6.797  0.4025 -1.0353 -0.1995
 6843SOL     OW20706   8.352   0.195   3.347 -0.3171  0.0421 -0.3873
 6843SOL    HW120707   8.368   0.098   3.330  0.4567  0.0174  0.3876
 6843SOL    HW220708   8.324   0.240   3.262  1.0028 -0.5303 -1.1582
 6844SOL     OW20709   2.648   8.221   7.770  0.2562  0.4029  0.3406
 6844SOL    HW120710   2.555   8.240   7.800  0.4863 -0.5772  1.7625
 6844SOL    HW220711   2.710   8.288   7.810  0.0716  1.8816 -1.6579
 6845SOL     OW20712   1.247   5.649   0.518  0.0061  0.5723 -0.9691
 6845SOL    HW120713   1.308   5.723   0.490 -0.1689  0.2866 -2.1817
 6845SOL    HW220714   1.164   5.652   0.462 -0.9570  0.7556  0.4220
 6846SOL     OW20715   1.388   0.385   7.330 -0.2198 -0.3132  0.2751
 6846SOL    HW120716   1.445   0.310   7.364 -2.9358 -2.8119 -0.3189
 6846SOL    HW220717   1.365   0.446   7.406  2.6355  0.4797  0.6331
 6847SOL     OW20718   4.307   3.042   0.775  0.0896 -0.4539 -0.2614
 6847SOL    HW120719   4.300   3.117   0.709  0.2521 -0.6097 -0.4565
 6847SOL    HW220720   4.383   3.060   0.838  0.3926 -0.6547 -0.5667
 6848SOL     OW20721   7.146   6.408   5.874  0.6031  0.4222  0.4376
 6848SOL    HW120722   7.242   6.434   5.867  1.0122 -0.9554  0.7479
 6848SOL    HW220723   7.089   6.491   5.868  1.7037  1.1057 -1.3583
 6849SOL     OW20724   1.139   2.363   3.709  0.3810  0.5790  0.4796
 6849SOL    HW120725   1.155   2.376   3.611  3.3022 -1.3128  0.6102
 6849SOL    HW220726   1.153   2.450   3.757  0.7959  1.0986 -0.5571
 6850SOL     OW20727   7.815   6.834   7.752 -0.1470  0.2721 -0.3011
 6850SOL    HW120728   7.729   6.881   7.734 -1.3012 -0.7970  1.9485
 6850SOL    HW220729   7.864   6.880   7.826  0.9974  0.5769 -1.2213
 6851SOL     OW20730   5.924   0.544   8.191 -0.0035 -0.0484 -0.0341
 6851SOL    HW120731   5.833   0.543   8.234 -0.9657 -0.8007 -1.9536
 6851SOL    HW220732   5.980   0.472   8.230 -0.8331 -0.6970 -0.0014
 6852SOL     OW20733   4.323   1.376   5.087  0.6719  0.1435  0.6022
 6852SOL    HW120734   4.264   1.297   5.071  1.2355 -0.3259  0.8439
 6852SOL    HW220735   4.394   1.353   5.154  0.1671  1.1815  1.5437
 6853SOL     OW20736   3.637   1.416   1.594  0.4526  0.2271  0.2110
 6853SOL    HW120737   3.568   1.347   1.614  0.3566  0.0894 -0.5362
 6853SOL    HW220738   3.598   1.507   1.607  0.1425  0.1485 -0.1573
 6854SOL     OW20739   0.391   2.953   6.187 -0.3215 -0.2883 -0.2279
 6854SOL    HW120740   0.426   3.039   6.149 -0.3827  0.9218  2.2240
 6854SOL    HW220741   0.460   2.913   6.248 -0.6028 -1.5998 -0.7330
 6855SOL     OW20742   4.277   0.698   0.486  0.0254  0.1400  0.0640
 6855SOL    HW120743   4.198   0.758   0.478 -0.6059 -0.4965  1.2499
 6855SOL    HW220744   4.360   0.748   0.462 -0.5715  1.2284  0.2100
 6856SOL     OW20745   6.559   6.302   6.305 -0.6203 -0.7636  0.5854
 6856SOL    HW120746   6.485   6.236   6.318 -1.4695  0.1337  0.4336
 6856SOL    HW220747   6.634   6.281   6.368 -1.2871 -1.2686  1.2271
 6857SOL     OW20748   7.310   0.561   2.190 -0.1262  0.5196 -0.1241
 6857SOL    HW120749   7.239   0.527   2.251  1.0097 -0.8404  0.4636
 6857SOL    HW220750   7.279   0.552   2.095  0.0112 -1.9169  0.0230
 6858SOL     OW20751   3.064   3.158   4.879 -0.1687  0.0070  0.1586
 6858SOL    HW120752   2.967   3.176   4.862 -0.4394 -0.4600  1.1418
 6858SOL    HW220753   3.082   3.060   4.871 -0.4928 -0.3808  3.1982
 6859SOL     OW20754   1.811   8.376   3.715 -0.8976  0.1265  0.1897
 6859SOL    HW120755   1.809   8.329   3.803 -0.3388 -0.7280 -0.2491
 6859SOL    HW220756   1.902   8.369   3.675 -1.7189 -1.5580 -1.5488
 6860SOL     OW20757   3.379   0.285   6.466 -0.0643  0.4939  0.4157
 6860SOL    HW120758   3.293   0.326   6.497  0.4103  1.0958  0.9520
 6860SOL    HW220759   3.365   0.242   6.376 -1.4178 -1.0633  1.3006
 6861SOL     OW20760   6.716   1.717   8.661 -0.6158  0.1643  0.5686
 6861SOL    HW120761   6.656   1.677   8.731 -0.0230 -0.4165  0.7530
 6861SOL    HW220762   6.737   1.647   8.593 -1.1282  0.7078 -0.1574
 6862SOL     OW20763   4.347   0.502   7.083 -0.4115  0.1362 -0.7394
 6862SOL    HW120764   4.257   0.459   7.084  0.5445 -2.0271  0.8289
 6862SOL    HW220765   4.343   0.589   7.130 -1.5740 -0.1989 -0.1922
 6863SOL     OW20766   1.324   0.863   1.717  0.8877  0.8257  0.2940
 6863SOL    HW120767   1.261   0.810   1.773  1.1713  0.1123 -0.0499
 6863SOL    HW220768   1.275   0.940   1.675  0.0414 -0.1504 -0.5727
 6864SOL     OW20769   0.425   7.800   6.380 -0.0074 -0.3644 -0.6092
 6864SOL    HW120770   0.458   7.880   6.331  2.0031 -1.0798 -0.5213
 6864SOL    HW220771   0.492   7.772   6.449 -1.1739 -1.4699  0.1396
 6865SOL     OW20772   3.354   4.514   5.352  0.1802  0.4250 -0.3826
 6865SOL    HW120773   3.394   4.446   5.414 -0.0284  1.8756  1.4440
 6865SOL    HW220774   3.426   4.576   5.321 -0.1644  1.5985  1.0088
 6866SOL     OW20775   0.460   6.525   5.039  0.2771  0.1220  0.0097
 6866SOL    HW120776   0.414   6.502   5.124  2.5786 -1.3562  0.9365
 6866SOL    HW220777   0.436   6.457   4.969  1.6141 -1.1740  0.7442
 6867SOL     OW20778   0.032   2.640   0.537  0.1759  0.4199 -0.0458
 6867SOL    HW120779   0.037   2.739   0.551  0.5558  0.1656  1.9349
 6867SOL    HW220780  -0.014   2.621   0.451 -1.2750  2.2915  0.2578
 6868SOL     OW20781   1.802   7.700   2.545  0.5317  0.0833  0.4609
 6868SOL    HW120782   1.832   7.691   2.450 -1.5972 -0.4237 -0.2088
 6868SOL    HW220783   1.855   7.772   2.590  0.4015  1.5859 -1.6335
 6869SOL     OW20784   2.357   0.634   2.366  0.0691 -0.0375 -0.4217
 6869SOL    HW120785   2.317   0.710   2.417  0.7976  0.8184 -1.0788
 6869SOL    HW220786   2.436   0.598   2.417 -1.2289 -1.4824  0.6925
 6870SOL     OW20787   4.271   6.149   3.235 -0.1532  0.3971 -0.1734
 6870SOL    HW120788   4.183   6.189   3.208  0.3009  1.8673  0.3932
 6870SOL    HW220789   4.342   6.219   3.229  0.6167 -0.2103  1.2483
 6871SOL     OW20790   4.548   5.759   1.605  0.0852 -0.3709  0.2480
 6871SOL    HW120791   4.621   5.691   1.620 -0.0128 -0.5059  0.1126
 6871SOL    HW220792   4.573   5.845   1.650 -0.0626 -0.6768  0.9314
 6872SOL     OW20793   0.869   8.172   1.643 -0.0172 -0.0338 -0.0608
 6872SOL    HW120794   0.801   8.161   1.570 -1.3620  1.5650  0.8656
 6872SOL    HW220795   0.951   8.120   1.621 -1.7418 -2.5591 -0.9461
 6873SOL     OW20796   3.350   4.454   5.932  0.7487 -0.6013  0.0102
 6873SOL    HW120797   3.346   4.522   5.860 -1.2351 -0.2250  0.4314
 6873SOL    HW220798   3.426   4.391   5.914  1.6271  0.7486 -1.2238
 6874SOL     OW20799   5.546   8.394   7.892 -0.2580  0.3597  0.9035
 6874SOL    HW120800   5.452   8.369   7.866 -0.8395  0.6624  2.5555
 6874SOL    HW220801   5.556   8.493   7.886  0.2457  0.2532 -0.1228
 6875SOL     OW20802   7.794   3.168   6.158 -0.3784  0.1628 -0.5563
 6875SOL    HW120803   7.703   3.205   6.139 -1.1121 -0.4258  1.5223
 6875SOL    HW220804   7.850   3.239   6.202 -1.1185 -0.4992  1.5772
 6876SOL     OW20805   1.899   7.735   2.271  0.4252 -0.0471 -0.0054
 6876SOL    HW120806   1.878   7.665   2.203  0.7783 -0.2038  0.0466
 6876SOL    HW220807   1.904   7.824   2.226 -2.5589  0.3843  0.2823
 6877SOL     OW20808   1.139   8.487   8.279  0.5207  0.0744  0.1112
 6877SOL    HW120809   1.123   8.580   8.248  1.8437  0.4737  0.5757
 6877SOL    HW220810   1.186   8.488   8.368  0.9010 -1.0220 -0.0516
 6878SOL     OW20811   8.004   8.098   4.647 -0.1294 -0.3741  0.5339
 6878SOL    HW120812   8.097   8.095   4.611  0.6006  4.0684  1.4415
 6878SOL    HW220813   7.944   8.141   4.580 -0.3626  1.2181  1.6938
 6879SOL     OW20814   1.480   6.883   4.664 -0.2570  0.4475 -0.2964
 6879SOL    HW120815   1.400   6.831   4.634 -1.3154  2.3750 -0.9435
 6879SOL    HW220816   1.452   6.972   4.700  1.5383  0.8538  0.2249
 6880SOL     OW20817   1.324   5.820   1.805 -0.2689  0.0673 -0.5769
 6880SOL    HW120818   1.387   5.821   1.728  0.6190  0.0873  0.1327
 6880SOL    HW220819   1.266   5.901   1.801 -0.0351  0.2162 -1.0606
 6881SOL     OW20820   2.443   8.395   8.333 -0.0292  0.1367  0.6036
 6881SOL    HW120821   2.525   8.407   8.276 -0.3175 -0.7792 -0.0329
 6881SOL    HW220822   2.396   8.483   8.341  0.1938  0.3553 -0.3161
 6882SOL     OW20823   0.878   5.220   2.382  0.3573  0.8139  0.1702
 6882SOL    HW120824   0.910   5.315   2.375  2.7511  0.0566 -0.2421
 6882SOL    HW220825   0.957   5.159   2.387 -1.0972 -1.3067 -1.1931
 6883SOL     OW20826   4.091   6.659   7.885 -0.3781  0.3641  0.0704
 6883SOL    HW120827   4.156   6.672   7.810  0.5494  1.3463  1.0132
 6883SOL    HW220828   4.100   6.734   7.950 -0.0204 -1.2852  2.0019
 6884SOL     OW20829   8.001   5.693   3.595  0.1941 -0.0832 -0.4873
 6884SOL    HW120830   7.948   5.770   3.560 -0.7122 -0.6830 -0.4531
 6884SOL    HW220831   8.063   5.660   3.524  1.1675  1.1675 -0.2495
 6885SOL     OW20832   8.040   6.393   6.885  0.1318 -0.2166 -0.6341
 6885SOL    HW120833   8.088   6.313   6.848 -1.3673 -1.0579 -0.8620
 6885SOL    HW220834   7.993   6.368   6.969 -0.2380  0.4665 -0.6284
 6886SOL     OW20835   0.989   3.001   8.807  0.9364 -0.1362  0.2338
 6886SOL    HW120836   1.000   2.927   8.873 -0.7182  0.1048  0.8296
 6886SOL    HW220837   0.908   3.055   8.830 -0.5577 -0.8699 -2.7344
 6887SOL     OW20838   5.581   6.172   4.771  0.1799 -0.1684 -0.3375
 6887SOL    HW120839   5.656   6.130   4.720  0.7016  1.4178 -0.9281
 6887SOL    HW220840   5.615   6.204   4.859  0.0711  0.0887 -0.3897
 6888SOL     OW20841   0.062   1.187   5.893  0.3590 -0.3202 -0.2934
 6888SOL    HW120842   0.076   1.286   5.883 -1.1209  0.0803  1.0812
 6888SOL    HW220843   0.017   1.151   5.811 -0.1895  0.3883 -0.3156
 6889SOL     OW20844   6.462   8.839   0.017  0.3660 -0.2885  0.6998
 6889SOL    HW120845   6.420   8.786  -0.057  0.6311 -0.0866  0.3983
 6889SOL    HW220846   6.551   8.798   0.040  1.6670  1.3260 -1.1328
 6890SOL     OW20847   1.996   7.853   6.258 -0.2286  0.2408  0.1913
 6890SOL    HW120848   1.955   7.892   6.175 -0.8539  1.7093  1.1338
 6890SOL    HW220849   1.988   7.920   6.333 -0.4235 -1.3482  1.6422
 6891SOL     OW20850   8.325   4.788   6.251 -0.2651  0.7018  0.1243
 6891SOL    HW120851   8.362   4.831   6.169 -1.1602  1.4627  0.0906
 6891SOL    HW220852   8.235   4.748   6.230 -1.0153  1.8633  0.9495
 6892SOL     OW20853   8.543   4.633   2.264 -0.8433 -0.2978  0.7730
 6892SOL    HW120854   8.493   4.651   2.349 -1.2689 -0.8487  0.6443
 6892SOL    HW220855   8.641   4.626   2.285 -0.9745 -0.7343  1.2682
 6893SOL     OW20856   6.955   7.921   5.135  0.0146  0.3216 -0.2488
 6893SOL    HW120857   6.933   7.827   5.162  0.2128  0.3463  0.0069
 6893SOL    HW220858   7.003   7.920   5.047  0.0607  0.1788 -0.2223
 6894SOL     OW20859   2.459   7.816   2.503 -0.3255  0.0784  0.0118
 6894SOL    HW120860   2.520   7.826   2.582 -1.9475  1.1982  1.1679
 6894SOL    HW220861   2.417   7.725   2.504  0.2856 -0.2163 -0.0693
 6895SOL     OW20862   2.207   7.853   6.571  0.7098  0.4966  0.6059
 6895SOL    HW120863   2.274   7.921   6.541  0.1103  1.3422  1.1263
 6895SOL    HW220864   2.149   7.893   6.642 -1.4564  0.3925 -0.9829
 6896SOL     OW20865   6.079   3.439   4.954  0.5670  0.3918 -0.7631
 6896SOL    HW120866   6.125   3.384   5.025 -2.0614 -1.2695 -0.2011
 6896SOL    HW220867   6.118   3.416   4.865 -0.1330 -2.1764 -0.5015
 6897SOL     OW20868   8.717   4.181   6.821 -0.3410  0.6310 -0.0140
 6897SOL    HW120869   8.725   4.268   6.871  2.4790  1.0754 -1.0401
 6897SOL    HW220870   8.662   4.195   6.739  0.2493  1.5491 -0.2732
 6898SOL     OW20871   1.474   6.888   5.396  0.3652 -0.3476 -0.0324
 6898SOL    HW120872   1.444   6.866   5.303  1.3490 -0.7309 -0.2743
 6898SOL    HW220873   1.418   6.838   5.462 -1.5086  1.2666 -0.3126
 6899SOL     OW20874   1.051   8.840   5.856  0.0101  0.4896  0.0386
 6899SOL    HW120875   1.049   8.929   5.902 -1.6332  0.0547  0.8867
 6899SOL    HW220876   1.038   8.853   5.758  1.1346  1.2600 -0.0275
 6900SOL     OW20877   6.464   6.497   4.381  0.5450 -0.2514  0.5005
 6900SOL    HW120878   6.535   6.498   4.310 -0.6984 -0.3747 -0.7923
 6900SOL    HW220879   6.403   6.575   4.368  1.2176  0.6521  2.4553
 6901SOL     OW20880   5.080   2.028   2.707  0.7531  0.4787  0.5577
 6901SOL    HW120881   5.163   2.063   2.750  0.2455 -0.2936  2.2320
 6901SOL    HW220882   5.007   2.021   2.775 -0.4325  0.2694 -0.6787
 6902SOL     OW20883   4.210   8.400   2.358 -0.4549  0.0911 -0.1403
 6902SOL    HW120884   4.115   8.412   2.327 -0.4127  1.2610  0.1429
 6902SOL    HW220885   4.209   8.358   2.449 -0.7929  1.5693  0.5742
 6903SOL     OW20886   7.009   6.911   0.327 -0.3630 -0.0671 -0.3497
 6903SOL    HW120887   6.922   6.885   0.284  0.6240 -1.7496 -1.4662
 6903SOL    HW220888   7.083   6.858   0.286  1.4595  2.4666 -0.5657
 6904SOL     OW20889   0.997   2.013   2.985 -0.1775  0.1303  0.0708
 6904SOL    HW120890   0.979   2.042   3.079 -1.3850 -1.2640  0.3106
 6904SOL    HW220891   0.981   2.089   2.923  1.4136  1.3157  1.0217
 6905SOL     OW20892   7.009   7.011   5.249  0.4940 -0.4312 -0.0761
 6905SOL    HW120893   6.989   7.108   5.237 -0.5364 -0.7638 -1.2682
 6905SOL    HW220894   7.024   6.992   5.346 -1.5629  0.5321  0.4863
 6906SOL     OW20895   4.351   1.658   4.790 -0.6417 -0.3726 -0.1096
 6906SOL    HW120896   4.406   1.589   4.837 -1.6986 -0.1497  1.5271
 6906SOL    HW220897   4.309   1.618   4.708 -2.2697 -2.1155  1.4800
 6907SOL     OW20898   1.533   7.065   0.103 -0.1862  0.0990  0.3582
 6907SOL    HW120899   1.586   7.068   0.188  0.3591  0.1112  0.0136
 6907SOL    HW220900   1.450   7.121   0.114 -2.1864 -2.9206  2.2788
 6908SOL     OW20901   2.930   5.341   5.692  0.1192  0.1966 -0.3013
 6908SOL    HW120902   2.923   5.422   5.634  2.0348  0.1821 -0.6167
 6908SOL    HW220903   2.909   5.366   5.787 -1.8786  0.4658 -0.7658
 6909SOL     OW20904   8.355   3.192   8.445  0.2041 -0.3455  0.5758
 6909SOL    HW120905   8.432   3.247   8.412 -0.8158  0.2725 -0.8628
 6909SOL    HW220906   8.283   3.253   8.478  0.5210 -0.9264  2.4661
 6910SOL     OW20907   3.491   1.512   7.111 -0.4225  0.2184 -0.0449
 6910SOL    HW120908   3.452   1.569   7.039 -1.0766  0.3832  0.4216
 6910SOL    HW220909   3.485   1.416   7.085 -0.3901  0.2938 -0.3334
 6911SOL     OW20910   2.042   8.612   1.182 -0.5877 -0.6724  0.3377
 6911SOL    HW120911   2.066   8.709   1.189 -0.6434 -0.7275  1.6274
 6911SOL    HW220912   2.125   8.556   1.185 -0.5856 -0.6824  0.0913
 6912SOL     OW20913   8.811   1.829   3.698 -1.0394 -0.2047 -0.2080
 6912SOL    HW120914   8.867   1.870   3.770  0.4217 -1.5182 -0.5459
 6912SOL    HW220915   8.755   1.900   3.655  0.5232  1.2151 -0.0131
 6913SOL     OW20916   0.731   5.061   3.235  0.4973 -0.2703 -0.1797
 6913SOL    HW120917   0.706   4.974   3.192 -0.5776 -0.8100  1.4506
 6913SOL    HW220918   0.802   5.044   3.304  0.2201  0.1432  0.2049
 6914SOL     OW20919   7.840   0.428   5.283  1.2242  0.8883  0.0557
 6914SOL    HW120920   7.897   0.350   5.309  0.9770  1.3920  2.3085
 6914SOL    HW220921   7.858   0.504   5.345 -0.1931  1.8533 -0.6692
 6915SOL     OW20922   7.587   4.366   6.640 -0.1659  0.1105 -0.1556
 6915SOL    HW120923   7.680   4.368   6.603  0.0497  2.0875  0.3556
 6915SOL    HW220924   7.569   4.276   6.679  0.7897 -0.9597 -2.0234
 6916SOL     OW20925   5.328   7.419   1.676 -0.6970 -0.1022  0.2469
 6916SOL    HW120926   5.380   7.504   1.673 -0.2774 -0.3660 -2.6964
 6916SOL    HW220927   5.388   7.343   1.649 -2.0668 -0.6963 -1.2558
 6917SOL     OW20928   7.696   2.560   6.245 -0.2326 -0.0039  0.4061
 6917SOL    HW120929   7.769   2.520   6.300 -0.3341  0.1626  0.6644
 6917SOL    HW220930   7.723   2.559   6.148 -0.2382 -0.6922  0.4095
 6918SOL     OW20931   6.992   4.427   2.926 -0.2260  0.2375  0.3559
 6918SOL    HW120932   7.033   4.338   2.903 -0.8945 -0.6752  2.4258
 6918SOL    HW220933   7.037   4.464   3.007 -1.9597  0.2843  1.3437
 6919SOL     OW20934   2.316   0.370   5.389  0.3084  0.4004 -0.2040
 6919SOL    HW120935   2.400   0.325   5.359  0.9709  1.8813 -0.6698
 6919SOL    HW220936   2.244   0.355   5.321 -0.0492 -1.4337  0.5127
 6920SOL     OW20937   3.321   7.305   1.320 -0.5632  0.0088  0.3246
 6920SOL    HW120938   3.278   7.215   1.315 -0.3155 -0.0391 -2.5376
 6920SOL    HW220939   3.275   7.368   1.258 -1.2209  2.1671  2.7986
 6921SOL     OW20940   2.763   3.454   3.619 -1.1302  0.1987  0.0904
 6921SOL    HW120941   2.707   3.391   3.564 -0.9396  0.4548 -0.4028
 6921SOL    HW220942   2.784   3.535   3.565 -1.7746  0.9162  0.8899
 6922SOL     OW20943   5.848   5.459   7.366  0.2631  0.8144  0.1198
 6922SOL    HW120944   5.848   5.545   7.316  0.2291  0.7835  0.0669
 6922SOL    HW220945   5.910   5.394   7.321  0.2172  0.7801  0.1066
 6923SOL     OW20946   3.488   1.458   3.481  0.0123  0.0406  0.3612
 6923SOL    HW120947   3.459   1.551   3.502 -1.6371 -0.6192  1.1840
 6923SOL    HW220948   3.422   1.393   3.518  0.2983 -1.4286 -1.5269
 6924SOL     OW20949   2.981   0.030   2.776  0.2930  0.8449 -0.0391
 6924SOL    HW120950   2.959   0.063   2.868 -1.1207  0.2838 -0.1483
 6924SOL    HW220951   2.989   0.108   2.714 -0.2491  1.1429  0.2586
 6925SOL     OW20952   3.126   4.477   0.112 -0.3904  0.3755 -0.4943
 6925SOL    HW120953   3.045   4.511   0.064 -0.4667 -0.1750 -0.7562
 6925SOL    HW220954   3.186   4.430   0.048  0.9725  2.2373 -0.6579
 6926SOL     OW20955   3.318   0.237   8.819 -0.1652  0.1154  0.5334
 6926SOL    HW120956   3.412   0.230   8.785  0.3102 -0.9622  1.9821
 6926SOL    HW220957   3.256   0.191   8.755  0.0548  1.9999 -1.1443
 6927SOL     OW20958   8.597   4.026   0.072  0.3305 -0.3782 -0.0324
 6927SOL    HW120959   8.595   3.927   0.084  1.4230 -0.4883 -0.6430
 6927SOL    HW220960   8.683   4.063   0.106  0.3646  0.2250 -0.7409
 6928SOL     OW20961   5.139   5.585   1.367 -0.1599  0.0638  0.3537
 6928SOL    HW120962   5.076   5.508   1.376 -0.0031 -0.1302 -0.1734
 6928SOL    HW220963   5.205   5.583   1.442  0.8234 -1.2387 -0.4973
 6929SOL     OW20964   5.135   2.954   1.854  0.6023  0.2692 -0.3107
 6929SOL    HW120965   5.085   3.039   1.866  0.1398 -0.1172  0.5745
 6929SOL    HW220966   5.233   2.974   1.845  0.4105  0.9439 -0.9772
 6930SOL     OW20967   5.991   4.149   3.540  0.7445  0.5930 -0.3021
 6930SOL    HW120968   5.935   4.066   3.546  0.7483  0.5797 -0.4369
 6930SOL    HW220969   6.037   4.165   3.627  0.4895  0.6326 -0.1721
 6931SOL     OW20970   8.586   1.959   7.877  0.0060 -0.1778  0.5402
 6931SOL    HW120971   8.584   2.059   7.870  0.9363 -0.0792  1.4972
 6931SOL    HW220972   8.596   1.920   7.785 -0.8811  0.5790  0.1072
 6932SOL     OW20973   0.963   7.724   2.755  0.3604  0.3920 -0.4702
 6932SOL    HW120974   0.960   7.661   2.678 -0.1970  0.6071 -0.6231
 6932SOL    HW220975   1.057   7.728   2.790 -0.0170 -2.4974  1.1936
 6933SOL     OW20976   2.548   3.818   2.500 -0.0745 -0.1448 -0.7399
 6933SOL    HW120977   2.510   3.738   2.548  1.3171  0.6846  1.9319
 6933SOL    HW220978   2.480   3.891   2.498  0.6376  0.7285  2.4670
 6934SOL     OW20979   0.654   0.322   3.616 -0.1138  0.2770  0.1170
 6934SOL    HW120980   0.638   0.267   3.533  0.6438 -1.5761  1.1350
 6934SOL    HW220981   0.596   0.403   3.613 -2.4926 -1.3145 -0.7986
 6935SOL     OW20982   5.194   7.672   8.533  0.0145  0.0053  0.0595
 6935SOL    HW120983   5.198   7.756   8.478 -0.8990 -0.3211 -0.5297
 6935SOL    HW220984   5.235   7.689   8.622  1.2672  0.6329 -0.6100
 6936SOL     OW20985   1.717   6.110   1.140 -0.1422  0.1239  0.3340
 6936SOL    HW120986   1.742   6.190   1.086 -2.0558  1.2269  0.9525
 6936SOL    HW220987   1.618   6.094   1.131 -0.2699 -0.5291  2.3102
 6937SOL     OW20988   0.054   7.059   8.065 -0.2307 -0.0354 -0.2100
 6937SOL    HW120989   0.070   6.977   8.119  0.0380  0.4483  0.4541
 6937SOL    HW220990   0.020   7.133   8.124 -0.3266  0.3776 -0.7672
 6938SOL     OW20991   3.197   8.130   5.797  0.0499 -0.3860 -0.2231
 6938SOL    HW120992   3.292   8.161   5.795  0.2847 -0.9854  0.8052
 6938SOL    HW220993   3.194   8.031   5.802 -0.5756 -0.3330  1.0995
 6939SOL     OW20994   8.208   7.377   2.606  1.0099 -0.2553  0.4340
 6939SOL    HW120995   8.292   7.426   2.582  1.0632 -1.1864 -1.4205
 6939SOL    HW220996   8.156   7.356   2.523 -0.4723 -0.7721  1.4390
 6940SOL     OW20997   3.382   1.949   5.990 -0.2786  0.1034  0.2160
 6940SOL    HW120998   3.310   1.946   6.060 -0.6066 -0.2617 -0.1300
 6940SOL    HW220999   3.351   2.005   5.913  0.2767  0.9132  0.5718
 6941SOL     OW21000   8.535   7.502   4.341 -0.1261 -0.4126  0.5033
 6941SOL    HW121001   8.488   7.514   4.253 -0.5098  1.5918  0.9255
 6941SOL    HW221002   8.572   7.409   4.347 -0.2374 -0.6528 -1.7043
 6942SOL     OW21003   3.246   0.738   1.827 -0.7536  0.1841  0.4502
 6942SOL    HW121004   3.303   0.657   1.823 -0.8242  0.0471  1.7145
 6942SOL    HW221005   3.251   0.788   1.740  0.9475 -0.0407  0.3973
 6943SOL     OW21006   7.925   8.030   0.678  0.0753 -0.4507 -0.1644
 6943SOL    HW121007   7.971   8.119   0.669 -1.8520  0.8327  1.6055
 6943SOL    HW221008   7.915   7.989   0.587  2.2290  0.4445 -0.8919
 6944SOL     OW21009   7.314   4.610   5.108 -0.2939  0.3001 -0.2345
 6944SOL    HW121010   7.364   4.526   5.088  1.3600  1.1932 -0.0440
 6944SOL    HW221011   7.250   4.593   5.183  1.5440 -0.3262  1.2920
 6945SOL     OW21012   0.762   3.281   1.490  0.0235 -0.2294  0.0506
 6945SOL    HW121013   0.834   3.351   1.494 -1.4558  1.4438 -0.9056
 6945SOL    HW221014   0.764   3.237   1.400 -0.2987  0.0186 -0.0809
 6946SOL     OW21015   0.330   0.224   7.438  0.0112 -0.3975 -0.4886
 6946SOL    HW121016   0.327   0.324   7.437 -1.1057 -0.4197 -1.4676
 6946SOL    HW221017   0.238   0.187   7.428  0.5279 -1.5191 -1.4510
 6947SOL     OW21018   3.311   7.923   6.555  0.1643  0.3939  0.1241
 6947SOL    HW121019   3.217   7.907   6.524  0.2503 -1.9070  0.8833
 6947SOL    HW221020   3.369   7.945   6.476 -0.8756  1.2505 -0.4241
 6948SOL     OW21021   4.567   6.588   3.147 -0.9088  0.5496  0.0906
 6948SOL    HW121022   4.644   6.605   3.085 -1.0282 -1.9479 -0.8179
 6948SOL    HW221023   4.512   6.672   3.154  0.0659  1.4259 -1.8125
 6949SOL     OW21024   7.234   6.588   7.904  0.3080 -0.2542 -0.0689
 6949SOL    HW121025   7.204   6.570   7.810  0.2914 -0.9957  0.0788
 6949SOL    HW221026   7.185   6.528   7.967  1.7828 -1.1976  0.2143
 6950SOL     OW21027   6.912   8.427   6.205 -0.0772  0.5611 -0.2937
 6950SOL    HW121028   6.890   8.440   6.302 -0.0286  0.9178 -0.3268
 6950SOL    HW221029   7.011   8.432   6.192 -0.1314  1.4122 -0.4775
 6951SOL     OW21030   1.568   6.490   4.263 -0.4687 -0.0499  0.4367
 6951SOL    HW121031   1.512   6.570   4.284 -0.9847 -0.5692  1.0839
 6951SOL    HW221032   1.589   6.489   4.166  0.6425  1.5643  0.6211
 6952SOL     OW21033   6.386   8.428   8.727 -0.0605 -0.4295  0.0059
 6952SOL    HW121034   6.322   8.352   8.714 -1.0042  0.5298 -1.1365
 6952SOL    HW221035   6.479   8.396   8.710 -0.3319 -1.5748  0.5769
 6953SOL     OW21036   7.541   4.410   8.549  0.1557  0.2866  0.1517
 6953SOL    HW121037   7.560   4.482   8.482 -1.5274  0.4902 -0.1646
 6953SOL    HW221038   7.582   4.434   8.637  2.3344  0.0583 -0.7354
 6954SOL     OW21039   4.544   3.032   3.848  0.1466 -0.4474 -0.1072
 6954SOL    HW121040   4.526   3.085   3.930  0.4624 -0.1292 -0.2419
 6954SOL    HW221041   4.565   3.094   3.772  3.0325 -0.8005  0.3126
 6955SOL     OW21042   2.451   0.644   0.455  0.2879  0.0549 -0.1841
 6955SOL    HW121043   2.488   0.700   0.530  0.7912  0.1921 -0.5259
 6955SOL    HW221044   2.513   0.567   0.438 -0.2069 -0.3916  0.0298
 6956SOL     OW21045   8.777   4.257   4.761  0.2577 -0.0381  0.6961
 6956SOL    HW121046   8.864   4.210   4.773 -0.2183 -1.3299 -0.6763
 6956SOL    HW221047   8.707   4.212   4.816  0.2295  0.3621  0.9937
 6957SOL     OW21048   1.186   0.255   6.904  0.7129 -0.8007 -0.4416
 6957SOL    HW121049   1.263   0.294   6.953 -0.6556 -1.7655  2.7189
 6957SOL    HW221050   1.135   0.328   6.859  1.2728  0.3670  0.7590
 6958SOL     OW21051   5.699   6.075   3.092 -1.0655 -0.0721 -0.6818
 6958SOL    HW121052   5.665   6.025   3.173 -0.0812  0.3383  0.0067
 6958SOL    HW221053   5.624   6.089   3.028 -1.3533 -2.6684 -1.0365
 6959SOL     OW21054   6.419   8.747   1.393  0.7208  0.4323 -0.1194
 6959SOL    HW121055   6.495   8.689   1.366  1.2669 -0.2282  2.5585
 6959SOL    HW221056   6.334   8.695   1.389  0.7811  0.3547 -0.4756
 6960SOL     OW21057   3.916   4.571   2.650 -0.4492 -0.2528  0.2420
 6960SOL    HW121058   3.953   4.480   2.667 -1.1082 -0.0657  3.1307
 6960SOL    HW221059   3.821   4.576   2.682 -0.6439  1.2744 -0.4474
 6961SOL     OW21060   3.216   8.729   7.943  0.3516  0.2582  0.1015
 6961SOL    HW121061   3.148   8.776   7.999  0.6173 -1.2700  1.7920
 6961SOL    HW221062   3.172   8.654   7.893  0.7261 -0.6401  1.0834
 6962SOL     OW21063   8.253   8.165   6.098 -0.4709 -0.2245 -0.2616
 6962SOL    HW121064   8.273   8.068   6.088  0.6934 -0.0723  0.3414
 6962SOL    HW221065   8.161   8.177   6.134  0.4527 -1.2867  2.8336
 6963SOL     OW21066   1.727   4.408   5.396  0.4411  0.4407 -0.1222
 6963SOL    HW121067   1.641   4.459   5.397 -0.1686 -0.5831  0.3716
 6963SOL    HW221068   1.799   4.464   5.438  0.1802  1.5483 -1.0911
 6964SOL     OW21069   6.098   4.915   7.319 -1.0020 -0.4203 -0.5575
 6964SOL    HW121070   6.132   4.955   7.234  0.1398 -0.7766 -0.2805
 6964SOL    HW221071   6.156   4.943   7.395 -2.6263  0.7673  0.3015
 6965SOL     OW21072   5.646   6.842   7.117 -0.2185  0.3565 -0.9077
 6965SOL    HW121073   5.687   6.888   7.038 -0.5887 -0.1625 -1.4094
 6965SOL    HW221074   5.714   6.835   7.190  0.8565 -1.1524 -1.9881
 6966SOL     OW21075   5.220   5.255   4.891 -0.2252 -0.0378 -0.1701
 6966SOL    HW121076   5.304   5.239   4.944  0.4861  1.6587 -0.7087
 6966SOL    HW221077   5.204   5.178   4.830 -0.2864 -1.3888  1.4682
 6967SOL     OW21078   7.989   1.050   4.065 -0.1121  0.2782  0.5055
 6967SOL    HW121079   7.966   1.139   4.027 -0.6564 -0.2115 -0.3395
 6967SOL    HW221080   8.089   1.042   4.074 -0.0922  1.2466  1.3113
 6968SOL     OW21081   8.254   8.379   7.631  0.0519  0.1912 -0.3285
 6968SOL    HW121082   8.285   8.331   7.549  1.4858 -2.0559  1.4118
 6968SOL    HW221083   8.334   8.406   7.686 -0.8842 -0.3650  1.3864
 6969SOL     OW21084   1.733   1.639   0.802  0.1113  0.1957 -0.1704
 6969SOL    HW121085   1.744   1.732   0.764 -2.2378  0.6024 -0.0025
 6969SOL    HW221086   1.760   1.572   0.733  0.7752  0.9917 -0.7068
 6970SOL     OW21087   1.958   5.810   7.305 -0.0656 -0.3380  0.2743
 6970SOL    HW121088   2.003   5.721   7.307  0.6126  0.0108  2.4996
 6970SOL    HW221089   1.967   5.854   7.394 -2.6148  0.8735  0.0029
 6971SOL     OW21090   7.723   0.409   6.399 -0.0520  0.4884  0.1493
 6971SOL    HW121091   7.787   0.372   6.333 -1.1597 -0.9634 -0.1539
 6971SOL    HW221092   7.765   0.409   6.490  1.3883  2.2685 -0.4488
 6972SOL     OW21093   5.594   5.937   5.345  0.3131  0.1613 -0.4406
 6972SOL    HW121094   5.548   5.989   5.272 -1.1871 -0.8183 -0.2183
 6972SOL    HW221095   5.562   5.843   5.344  2.8504 -0.7762 -0.6976
 6973SOL     OW21096   4.288   8.850   1.678  0.3482 -0.1386  0.0535
 6973SOL    HW121097   4.228   8.906   1.620 -1.6414 -0.7574  1.3934
 6973SOL    HW221098   4.378   8.893   1.684 -0.9676  2.8006  0.7459
 6974SOL     OW21099   8.501   4.565   7.244  0.0556  0.4516  0.6588
 6974SOL    HW121100   8.404   4.554   7.265 -0.2395 -2.2808 -1.4759
 6974SOL    HW221101   8.552   4.488   7.281  0.6001 -0.5758 -1.9604
 6975SOL     OW21102   1.679   5.251   6.255  0.2173  0.6706 -0.2257
 6975SOL    HW121103   1.733   5.200   6.187 -0.6630  0.3059 -0.6685
 6975SOL    HW221104   1.604   5.194   6.288 -0.3722  1.4389 -0.2053
 6976SOL     OW21105   7.902   1.319   0.400  0.1748  0.1374 -0.4196
 6976SOL    HW121106   7.839   1.255   0.443  2.0563  0.2056  2.7415
 6976SOL    HW221107   7.864   1.411   0.401 -1.2717 -0.3840 -2.2456
 6977SOL     OW21108   2.983   5.682   7.410 -0.6859 -0.0679 -0.6765
 6977SOL    HW121109   2.986   5.779   7.387 -1.6139  0.2267  0.3817
 6977SOL    HW221110   2.982   5.628   7.326 -2.0006  0.9038 -1.3124
 6978SOL     OW21111   0.108   4.543   5.946 -0.7959 -0.3152 -0.1420
 6978SOL    HW121112   0.023   4.506   5.984 -0.2732 -0.2759  1.1274
 6978SOL    HW221113   0.098   4.642   5.934 -0.6820 -0.1801  0.7647
 6979SOL     OW21114   1.445   2.366   7.388 -0.4172 -0.1473 -0.2604
 6979SOL    HW121115   1.373   2.433   7.407  0.4177 -0.0988  3.3803
 6979SOL    HW221116   1.428   2.283   7.441  2.0918 -0.1988  0.5613
 6980SOL     OW21117   0.706   6.551   4.015 -0.2941  0.1862  0.3081
 6980SOL    HW121118   0.799   6.561   3.979  1.4415 -0.4824  4.0493
 6980SOL    HW221119   0.691   6.619   4.086 -2.8886  0.5074 -0.4561
 6981SOL     OW21120   6.705   3.092   3.243  0.8243  0.1241  0.1491
 6981SOL    HW121121   6.728   3.189   3.240 -0.0415  0.3861  1.2314
 6981SOL    HW221122   6.706   3.054   3.151 -0.5531  1.5855 -0.5067
 6982SOL     OW21123   6.816   6.218   0.159  0.0572  0.3059 -0.0653
 6982SOL    HW121124   6.883   6.157   0.200  1.2201  0.9801 -0.8928
 6982SOL    HW221125   6.730   6.169   0.144  1.4493 -1.6449 -2.2125
 6983SOL     OW21126   0.858   2.589   4.625  0.0126  0.0846  0.0752
 6983SOL    HW121127   0.940   2.609   4.679 -1.4311  1.0846  1.9764
 6983SOL    HW221128   0.777   2.618   4.674 -1.4484  0.4952 -2.4045
 6984SOL     OW21129   0.795   3.583   2.903  0.1625 -0.6237 -0.0133
 6984SOL    HW121130   0.771   3.653   2.971 -2.1104  0.4055 -1.7406
 6984SOL    HW221131   0.894   3.581   2.890  0.2714  2.8089 -0.4074
 6985SOL     OW21132   0.342   6.843   5.070 -0.2942  0.5175  0.4485
 6985SOL    HW121133   0.418   6.878   5.016  0.1355  1.6804  1.7738
 6985SOL    HW221134   0.277   6.916   5.090 -1.5027 -0.3329 -0.1781
 6986SOL     OW21135   8.711   7.030   0.881  0.1837 -0.1453  0.4498
 6986SOL    HW121136   8.727   6.950   0.940  1.8848  0.2298  0.5463
 6986SOL    HW221137   8.769   7.106   0.911  0.4938  0.3145 -1.2194
 6987SOL     OW21138   0.334   2.033   3.391 -0.2191 -0.3446  0.5096
 6987SOL    HW121139   0.325   2.000   3.485 -2.6495 -0.4963  0.2790
 6987SOL    HW221140   0.305   2.129   3.387  0.9805  0.0234  0.0841
 6988SOL     OW21141   1.064   7.369   4.082 -0.2099 -0.0315 -0.5512
 6988SOL    HW121142   1.154   7.325   4.091  0.2166  0.8692 -0.3172
 6988SOL    HW221143   1.067   7.439   4.011 -0.9092 -0.4203 -0.9781
 6989SOL     OW21144   1.349   5.551   7.548  0.1637 -0.6362 -0.2153
 6989SOL    HW121145   1.367   5.513   7.457  1.7914  1.3093 -0.7950
 6989SOL    HW221146   1.256   5.588   7.551 -0.0215 -1.0213 -0.9557
 6990SOL     OW21147   4.165   5.320   3.739  0.5274 -0.6147  0.4391
 6990SOL    HW121148   4.074   5.350   3.710  0.0096 -1.5457  1.0436
 6990SOL    HW221149   4.195   5.374   3.818  1.2806  0.8770 -0.7957
 6991SOL     OW21150   7.847   4.818   6.437 -0.0040 -0.1855  0.6421
 6991SOL    HW121151   7.905   4.737   6.444 -0.3533 -0.4347  0.6784
 6991SOL    HW221152   7.786   4.808   6.358  1.0079  0.7313 -0.2793
 6992SOL     OW21153   1.655   5.202   2.677 -0.1082 -0.1284  0.1129
 6992SOL    HW121154   1.638   5.106   2.655 -0.9449  0.2417 -0.9291
 6992SOL    HW221155   1.568   5.248   2.691  0.2807  0.5563  0.3136
 6993SOL     OW21156   8.674   6.239   6.390  0.2947 -0.2467  0.1230
 6993SOL    HW121157   8.759   6.234   6.443 -0.2448 -0.2786  1.0026
 6993SOL    HW221158   8.672   6.325   6.339 -0.1332  0.8149  1.8561
 6994SOL     OW21159   0.930   8.374   0.747 -0.1496 -0.4324  0.4818
 6994SOL    HW121160   0.884   8.443   0.803  1.3725  0.2184  1.0113
 6994SOL    HW221161   0.939   8.289   0.799 -1.4877 -0.8392  0.0582
 6995SOL     OW21162   6.309   2.165   5.086 -0.2558  0.1852  0.2514
 6995SOL    HW121163   6.330   2.117   5.171  1.0218 -0.2676 -0.2923
 6995SOL    HW221164   6.219   2.207   5.093 -0.6978 -0.8799  1.3668
 6996SOL     OW21165   7.921   2.766   1.486  0.5802  0.0098 -0.0261
 6996SOL    HW121166   7.863   2.724   1.556  1.8124  0.2250  1.1627
 6996SOL    HW221167   7.929   2.864   1.505  0.3990  0.1939 -0.8657
 6997SOL     OW21168   7.209   6.440   0.148 -0.1355  0.1308  0.0067
 6997SOL    HW121169   7.218   6.414   0.244  0.4188 -0.7700 -0.2835
 6997SOL    HW221170   7.293   6.420   0.099 -1.2918 -1.9977 -1.2569
 6998SOL     OW21171   2.534   3.808   6.956 -0.2066 -0.0351  0.0269
 6998SOL    HW121172   2.530   3.900   6.919  1.7622  0.5237  1.0474
 6998SOL    HW221173   2.452   3.790   7.010  0.0132  1.7225  1.0408
 6999SOL     OW21174   0.111   7.365   5.867  0.1461  0.1464  0.1280
 6999SOL    HW121175   0.096   7.410   5.955  0.3243  0.0920  0.1856
 6999SOL    HW221176   0.028   7.374   5.811  0.4411  1.2190 -0.1593
 7000SOL     OW21177   0.530   4.686   7.884 -0.0705  0.0619 -0.1501
 7000SOL    HW121178   0.478   4.646   7.960  2.2154  0.1688  1.5984
 7000SOL    HW221179   0.558   4.613   7.821  0.6292 -0.5362  0.8189
 7001SOL     OW21180   3.165   0.223   5.829  0.4248 -0.7767 -0.1336
 7001SOL    HW121181   3.261   0.239   5.803  0.3823 -0.3068 -0.0080
 7001SOL    HW221182   3.155   0.129   5.860  0.5463 -1.2830 -1.5167
 7002SOL     OW21183   0.927   1.631   5.974  0.5264  0.3591  0.4646
 7002SOL    HW121184   0.924   1.634   5.874  0.0395 -0.0913  0.4695
 7002SOL    HW221185   0.926   1.537   6.005 -2.2998  0.4814  0.9889
 7003SOL     OW21186   8.823   1.813   7.981  0.3039  0.0695  0.4733
 7003SOL    HW121187   8.794   1.909   7.987 -1.5192 -0.3640 -0.4759
 7003SOL    HW221188   8.811   1.781   7.887  0.1610 -1.3028  0.9359
 7004SOL     OW21189   2.123   6.728   0.572  0.2930  0.2318 -0.0188
 7004SOL    HW121190   2.088   6.806   0.625  0.9266  1.2401 -1.0493
 7004SOL    HW221191   2.064   6.712   0.493  1.1676  0.8387 -0.8089
 7005SOL     OW21192   1.293   6.994   4.168  0.3476 -0.2718  0.2042
 7005SOL    HW121193   1.199   7.018   4.193  0.4931 -1.0016  1.5483
 7005SOL    HW221194   1.304   6.895   4.168  1.4848 -0.1916  1.6348
 7006SOL     OW21195   7.656   1.495   6.291 -0.5755 -0.3554 -0.0318
 7006SOL    HW121196   7.745   1.533   6.269 -0.5761  1.0139  2.0787
 7006SOL    HW221197   7.639   1.414   6.234  1.9480 -0.6120 -0.5212
 7007SOL     OW21198   4.447   7.504   8.056  0.2393 -0.3616 -0.4576
 7007SOL    HW121199   4.492   7.416   8.039  1.3661  0.6716 -3.3730
 7007SOL    HW221200   4.515   7.577   8.055 -0.9765  0.8056 -0.5231
 7008SOL     OW21201   5.891   8.622   2.778  0.1956  0.4388  0.1312
 7008SOL    HW121202   5.820   8.608   2.846 -1.0494  1.1315 -0.9654
 7008SOL    HW221203   5.863   8.581   2.691  1.3809  0.2702 -0.1957
 7009SOL     OW21204   5.468   0.962   2.052 -0.2296  0.1119  0.0900
 7009SOL    HW121205   5.483   0.863   2.042  0.7027  0.1390  1.1119
 7009SOL    HW221206   5.554   1.010   2.040 -0.2817  0.6328  1.6680
 7010SOL     OW21207   5.773   5.883   5.664 -0.1652 -0.3581 -0.1132
 7010SOL    HW121208   5.830   5.885   5.583  0.5620 -1.0322  0.3727
 7010SOL    HW221209   5.677   5.895   5.638  0.1081 -0.0814 -1.0104
 7011SOL     OW21210   6.809   7.476   4.963  0.4109 -0.2651  0.3674
 7011SOL    HW121211   6.834   7.424   4.881 -1.7594  0.5654 -0.9223
 7011SOL    HW221212   6.763   7.416   5.028  0.6971 -0.5972  0.2663
 7012SOL     OW21213   2.216   4.569   2.426 -0.3519 -0.3063  0.1116
 7012SOL    HW121214   2.294   4.628   2.443 -0.0107 -0.2063 -1.6803
 7012SOL    HW221215   2.166   4.554   2.512 -0.9341  3.2335  0.5183
 7013SOL     OW21216   2.239   0.320   3.008  0.0069 -0.0528  0.1319
 7013SOL    HW121217   2.163   0.274   2.962  0.5957 -0.3290 -0.5827
 7013SOL    HW221218   2.266   0.266   3.088 -0.4242 -0.0480  0.2846
 7014SOL     OW21219   4.895   3.308   6.491  0.6813  0.5511 -0.0070
 7014SOL    HW121220   4.937   3.396   6.516  0.5495  0.4970  0.4095
 7014SOL    HW221221   4.796   3.321   6.479  0.3705  0.0951  1.8630
 7015SOL     OW21222   3.104   7.754   1.998 -1.0121 -0.8214  0.0386
 7015SOL    HW121223   3.179   7.771   2.062  1.2147 -1.6057 -2.1884
 7015SOL    HW221224   3.078   7.658   2.003 -1.4152 -0.6992  0.3305
 7016SOL     OW21225   7.345   2.131   5.725 -0.1427  0.3071 -0.5925
 7016SOL    HW121226   7.266   2.185   5.697  0.0729  0.6851 -0.4819
 7016SOL    HW221227   7.327   2.091   5.815  0.0906  1.0219 -0.2231
 7017SOL     OW21228   6.723   8.748   8.406 -0.1828  0.1051 -0.2962
 7017SOL    HW121229   6.626   8.765   8.423  0.2250  0.0905  2.4010
 7017SOL    HW221230   6.771   8.835   8.397 -0.3516  0.1162 -1.1700
 7018SOL     OW21231   5.055   0.694   2.128  0.0488 -0.7681 -0.6891
 7018SOL    HW121232   5.013   0.785   2.123 -1.4493 -1.4205 -0.7380
 7018SOL    HW221233   5.026   0.640   2.049  0.5190 -1.4487 -0.4004
 7019SOL     OW21234   8.198   8.410   2.458 -0.1458  0.3135  0.1658
 7019SOL    HW121235   8.183   8.337   2.524  2.0236 -1.3384 -1.0499
 7019SOL    HW221236   8.176   8.377   2.366  0.6549  1.2687 -0.3900
 7020SOL     OW21237   1.525   2.205   3.948 -0.1997 -0.1202 -0.1916
 7020SOL    HW121238   1.555   2.254   3.866 -0.0889  0.4543  0.1856
 7020SOL    HW221239   1.474   2.124   3.921 -0.2485  0.1135 -0.8302
 7021SOL     OW21240   0.169   7.443   7.655  0.5938  0.0618  0.0684
 7021SOL    HW121241   0.102   7.435   7.729  1.0801 -0.6406  0.4418
 7021SOL    HW221242   0.230   7.519   7.673  0.5598  0.0407  0.2719
 7022SOL     OW21243   1.586   4.590   2.459 -0.8670 -1.0056 -0.3762
 7022SOL    HW121244   1.595   4.615   2.363  0.2401 -2.0346 -0.5749
 7022SOL    HW221245   1.526   4.510   2.467 -3.8335  1.1190  0.1852
 7023SOL     OW21246   8.247   1.595   3.260  0.1220 -0.6428 -0.2881
 7023SOL    HW121247   8.195   1.556   3.185 -1.1344  1.3813 -0.5440
 7023SOL    HW221248   8.192   1.664   3.307  1.4783 -0.6664  1.4532
 7024SOL     OW21249   2.839   0.162   4.441 -0.2885  0.3064  0.1083
 7024SOL    HW121250   2.785   0.090   4.486  0.0725 -0.8683 -1.2462
 7024SOL    HW221251   2.859   0.134   4.347  2.0463  1.0482  0.3293
 7025SOL     OW21252   3.421   2.953   6.070  0.5953 -0.1285 -0.2044
 7025SOL    HW121253   3.398   3.026   6.006  1.9662  0.4740 -0.0344
 7025SOL    HW221254   3.410   2.865   6.025  1.1098  0.2696 -1.1410
 7026SOL     OW21255   0.323   0.950   8.328  0.2807  0.2232 -0.2273
 7026SOL    HW121256   0.283   0.984   8.243 -1.3043  0.9852  0.7704
 7026SOL    HW221257   0.335   1.026   8.392  2.4945 -0.1424 -0.1197
 7027SOL     OW21258   5.019   2.421   7.975 -0.1639 -0.3121  0.0688
 7027SOL    HW121259   4.952   2.494   7.988 -1.5409 -1.4946 -0.1836
 7027SOL    HW221260   5.111   2.456   7.996 -0.8634  1.2850  0.6143
 7028SOL     OW21261   3.015   8.367   0.541 -0.0349 -0.2660 -0.6360
 7028SOL    HW121262   3.031   8.454   0.588  0.5478  0.1579 -1.6001
 7028SOL    HW221263   2.928   8.329   0.571 -0.6649  1.0255 -0.7603
 7029SOL     OW21264   1.260   1.068   3.087 -0.0311 -0.1086 -0.3774
 7029SOL    HW121265   1.272   1.029   2.996  0.0606  0.0581 -0.4382
 7029SOL    HW221266   1.350   1.080   3.130 -0.0013  0.7372 -0.6588
 7030SOL     OW21267   8.642   5.961   8.167 -0.7141  0.0955  0.3698
 7030SOL    HW121268   8.689   5.996   8.248 -1.2082  0.3429  0.5541
 7030SOL    HW221269   8.548   5.936   8.191 -0.6453 -0.5159  0.0386
 7031SOL     OW21270   1.545   5.675   0.434 -0.3587 -0.1641  0.1794
 7031SOL    HW121271   1.544   5.607   0.507 -0.2234 -0.3507  0.0104
 7031SOL    HW221272   1.599   5.754   0.462 -0.5813 -0.0905  0.4071
 7032SOL     OW21273   3.068   6.014   2.914 -0.0666  0.4671 -0.1446
 7032SOL    HW121274   3.150   6.028   2.971 -1.6378  2.6623  1.7344
 7032SOL    HW221275   3.031   6.102   2.886 -1.0852 -0.5261 -2.1197
 7033SOL     OW21276   8.145   6.213   7.765 -0.0895  0.1008  0.0926
 7033SOL    HW121277   8.228   6.222   7.712 -0.5711 -0.1424 -0.7174
 7033SOL    HW221278   8.149   6.130   7.821 -0.3524 -0.6555 -0.9891
 7034SOL     OW21279   7.258   7.597   6.902  0.0277  0.5457  0.0104
 7034SOL    HW121280   7.334   7.532   6.897 -0.6491 -0.2008 -1.4371
 7034SOL    HW221281   7.172   7.548   6.897 -0.5028  1.5702 -2.1918
 7035SOL     OW21282   4.897   3.116   8.819 -0.1366 -0.3847 -0.1257
 7035SOL    HW121283   4.856   3.129   8.728 -2.9288  1.5048  1.2782
 7035SOL    HW221284   4.835   3.064   8.877  0.8613 -0.1346  1.2085
 7036SOL     OW21285   0.102   8.506   0.980 -0.1910  0.0854 -0.1272
 7036SOL    HW121286   0.095   8.406   0.987  0.2078  0.0410 -0.3647
 7036SOL    HW221287   0.021   8.548   1.022 -0.0807 -0.3195  0.4947
 7037SOL     OW21288   8.408   0.387   5.914 -0.2500 -1.0313 -0.4888
 7037SOL    HW121289   8.337   0.458   5.914  1.6185  1.0301  1.5813
 7037SOL    HW221290   8.366   0.297   5.925 -2.5794  0.0398 -0.1297
 7038SOL     OW21291   4.356   2.223   8.001  0.0607  0.3172 -0.1486
 7038SOL    HW121292   4.426   2.278   7.955  0.9634  0.7585  1.6605
 7038SOL    HW221293   4.305   2.280   8.065 -0.1776 -0.5610  0.4659
 7039SOL     OW21294   2.967   6.644   8.224 -0.2002  0.5337  0.5286
 7039SOL    HW121295   2.980   6.741   8.207  0.1965  0.6914  1.6563
 7039SOL    HW221296   2.955   6.596   8.136 -0.1584  1.5492 -0.0490
 7040SOL     OW21297   8.145   5.775   8.535  0.2261 -0.5129  0.6449
 7040SOL    HW121298   8.158   5.687   8.490  0.0874  0.7937 -2.1673
 7040SOL    HW221299   8.052   5.807   8.519  0.4951  0.4690  0.9840
 7041SOL     OW21300   0.363   5.973   7.074  0.1018 -0.0150  0.3642
 7041SOL    HW121301   0.440   5.910   7.074  0.2064  0.1033  1.1970
 7041SOL    HW221302   0.279   5.924   7.100  0.0154 -0.0008  0.1175
 7042SOL     OW21303   8.019   6.676   6.343  0.2366 -0.3553  0.3486
 7042SOL    HW121304   8.000   6.643   6.251  0.4036 -1.9930  0.8662
 7042SOL    HW221305   8.021   6.776   6.343  2.7339 -0.3010 -1.9310
 7043SOL     OW21306   6.482   5.611   7.874  0.4243  0.0356 -0.2706
 7043SOL    HW121307   6.475   5.704   7.837 -0.6275  0.7251  1.5514
 7043SOL    HW221308   6.425   5.549   7.819  0.9300  0.4959 -1.3460
 7044SOL     OW21309   2.881   7.213   0.495 -0.5654  0.3840  0.1648
 7044SOL    HW121310   2.919   7.215   0.587 -0.8024  0.8102  0.2556
 7044SOL    HW221311   2.797   7.158   0.494 -2.4089  3.0135  0.9371
 7045SOL     OW21312   0.968   6.779   5.497  0.1183  0.0542 -0.1607
 7045SOL    HW121313   0.919   6.866   5.506  1.2423  0.9207 -1.8090
 7045SOL    HW221314   1.050   6.781   5.554  0.8285  0.6207 -1.1824
 7046SOL     OW21315   6.225   6.486   7.716  0.0607  0.0779  0.1898
 7046SOL    HW121316   6.198   6.421   7.645  0.0181 -0.7593  0.9625
 7046SOL    HW221317   6.296   6.546   7.680 -1.0580  0.7021 -1.0712
 7047SOL     OW21318   7.423   4.581   7.371  0.1396  0.4510 -0.0151
 7047SOL    HW121319   7.372   4.514   7.425  0.0262  0.3963 -0.1859
 7047SOL    HW221320   7.446   4.660   7.427  1.1691 -0.1759  0.4731
 7048SOL     OW21321   6.663   2.445   8.759  0.6518  0.4367  0.1220
 7048SOL    HW121322   6.735   2.405   8.701  0.3929  1.3104 -0.8475
 7048SOL    HW221323   6.665   2.545   8.748 -0.4449  0.4943  0.3985
 7049SOL     OW21324   2.357   5.967   6.843 -0.0104 -0.0093  0.1421
 7049SOL    HW121325   2.357   5.924   6.753  0.6906  0.5721 -0.1412
 7049SOL    HW221326   2.451   5.988   6.870 -0.2794  0.5571  0.6572
 7050SOL     OW21327   2.283   5.641   8.657 -0.4443 -0.1295 -0.8349
 7050SOL    HW121328   2.229   5.721   8.629  0.6023  0.8541 -0.1534
 7050SOL    HW221329   2.276   5.629   8.756  1.1401  0.4685 -0.6247
 7051SOL     OW21330   7.561   5.630   5.171 -0.1098 -0.1534 -0.4790
 7051SOL    HW121331   7.645   5.591   5.135 -0.2131 -1.0138  0.1867
 7051SOL    HW221332   7.528   5.701   5.109 -0.0472 -1.2743 -1.8367
 7052SOL     OW21333   4.303   6.383   1.900 -0.0161 -0.0758 -0.1740
 7052SOL    HW121334   4.293   6.360   1.803  2.2748  1.1598 -0.7870
 7052SOL    HW221335   4.260   6.472   1.917  0.3573  0.1381 -0.3087
 7053SOL     OW21336   3.541   0.267   3.681  0.7120 -0.1922  0.2732
 7053SOL    HW121337   3.481   0.207   3.733  0.9723  0.3819  1.2789
 7053SOL    HW221338   3.620   0.215   3.648 -0.6865 -1.1415 -1.7638
 7054SOL     OW21339   6.718   0.693   5.150 -0.1815  0.0704 -0.4163
 7054SOL    HW121340   6.722   0.613   5.209 -0.7625  0.0090 -0.4537
 7054SOL    HW221341   6.683   0.667   5.060 -0.4225  0.3701 -0.4124
 7055SOL     OW21342   4.629   7.925   7.123  0.1364  0.2182  0.3646
 7055SOL    HW121343   4.531   7.921   7.144 -0.0745  0.3762 -0.5710
 7055SOL    HW221344   4.664   8.016   7.144  0.0820  0.1636  0.6949
 7056SOL     OW21345   3.444   2.803   5.541 -0.4766 -0.0028 -0.6570
 7056SOL    HW121346   3.531   2.777   5.583  1.0410 -0.7667 -3.9441
 7056SOL    HW221347   3.405   2.881   5.590  1.1114 -0.7629  1.9881
 7057SOL     OW21348   3.170   5.894   4.112 -0.2789  0.4390  0.5594
 7057SOL    HW121349   3.073   5.904   4.093 -0.1261  1.2863  0.1870
 7057SOL    HW221350   3.222   5.960   4.058  0.3882  1.0741  1.9275
 7058SOL     OW21351   7.218   7.944   8.586 -0.2541 -0.4832 -0.0215
 7058SOL    HW121352   7.188   7.861   8.632 -1.1836 -0.1721 -0.0472
 7058SOL    HW221353   7.263   8.004   8.652  0.4096 -0.9852 -0.0009
 7059SOL     OW21354   2.475   5.132   5.966  0.7181  0.1494 -0.1794
 7059SOL    HW121355   2.414   5.073   6.019  0.6701  0.7483  0.4414
 7059SOL    HW221356   2.519   5.078   5.894  1.5507 -0.9258  1.0964
 7060SOL     OW21357   2.106   2.070   3.003 -0.4414  0.4953 -0.0329
 7060SOL    HW121358   2.064   1.999   2.947  1.3788  0.8256 -1.9316
 7060SOL    HW221359   2.147   2.140   2.943  1.2435  1.0869  1.7116
 7061SOL     OW21360   2.072   3.379   2.382 -0.0827  0.2944  0.0757
 7061SOL    HW121361   2.086   3.474   2.412  1.7194 -0.1592  0.8043
 7061SOL    HW221362   2.098   3.370   2.286 -0.8023  0.6448 -0.1578
 7062SOL     OW21363   1.015   4.715   0.489  0.6732 -0.1232  0.4475
 7062SOL    HW121364   0.961   4.715   0.405  1.8214 -1.0167 -0.3226
 7062SOL    HW221365   1.078   4.638   0.488  2.1128  0.9898  1.2066
 7063SOL     OW21366   8.720   3.238   2.498  0.2953  0.1188 -0.0797
 7063SOL    HW121367   8.745   3.330   2.467  1.5616 -0.6714 -1.5666
 7063SOL    HW221368   8.803   3.184   2.511 -0.3903 -0.5684  1.6608
 7064SOL     OW21369   5.195   6.779   4.925  0.1917 -0.0576  0.3798
 7064SOL    HW121370   5.098   6.768   4.900 -0.1795 -0.5057  1.9067
 7064SOL    HW221371   5.241   6.836   4.856 -0.5664 -1.7984 -1.6755
 7065SOL     OW21372   1.101   7.518   8.343 -0.4156  0.0021 -0.5687
 7065SOL    HW121373   1.110   7.616   8.327 -3.0213  0.1875 -1.3868
 7065SOL    HW221374   1.072   7.473   8.259  1.3455 -1.6426 -0.3914
 7066SOL     OW21375   6.553   2.608   8.069 -0.1538  0.4040  0.1471
 7066SOL    HW121376   6.466   2.559   8.059 -0.5555  1.2118 -0.4052
 7066SOL    HW221377   6.627   2.541   8.081 -0.6834 -0.3466 -0.6043
 7067SOL     OW21378   7.905   4.881   1.288 -0.0419  0.2829 -0.3219
 7067SOL    HW121379   7.857   4.872   1.375  1.0918  0.4611  0.3416
 7067SOL    HW221380   7.983   4.944   1.299  0.3299  0.0277 -1.3716
 7068SOL     OW21381   4.876   4.604   3.422  0.0729  0.5686  0.4842
 7068SOL    HW121382   4.809   4.643   3.485  0.0137  0.0645  0.7369
 7068SOL    HW221383   4.904   4.673   3.355  1.6076  1.7158  2.2275
 7069SOL     OW21384   2.130   7.539   3.134  0.5159  0.5737  0.1834
 7069SOL    HW121385   2.102   7.580   3.047  0.4312  1.1210  0.4649
 7069SOL    HW221386   2.221   7.572   3.159  0.7782 -0.0165  0.0304
 7070SOL     OW21387   6.822   8.136   5.181 -0.0728 -0.2470 -0.0735
 7070SOL    HW121388   6.859   8.165   5.269  1.5542 -0.2013 -0.7309
 7070SOL    HW221389   6.877   8.060   5.145  0.4694  0.9414 -1.8803
 7071SOL     OW21390   1.280   1.437   5.649  0.0743 -0.5370 -0.1049
 7071SOL    HW121391   1.374   1.451   5.618  0.1550 -2.1410 -0.7051
 7071SOL    HW221392   1.220   1.503   5.605  1.1001  1.6005  1.5369
 7072SOL     OW21393   4.693   1.791   0.812  0.7803 -0.3838 -0.0214
 7072SOL    HW121394   4.656   1.699   0.825 -2.5859  0.4837 -2.1390
 7072SOL    HW221395   4.687   1.841   0.898  2.0595 -1.8702  0.9932
 7073SOL     OW21396   4.275   8.552   5.077 -0.0205 -0.6405 -0.0196
 7073SOL    HW121397   4.331   8.470   5.088 -0.7795 -1.0734  0.8201
 7073SOL    HW221398   4.203   8.533   5.010 -0.5798 -0.9018  0.6310
 7074SOL     OW21399   4.420   0.855   2.398 -0.3870  0.4358 -0.6049
 7074SOL    HW121400   4.335   0.811   2.371 -0.4349 -0.3700  0.7581
 7074SOL    HW221401   4.465   0.800   2.468  1.2618  0.8470 -1.2967
 7075SOL     OW21402   7.783   7.942   4.741 -0.1185 -0.2085 -0.3893
 7075SOL    HW121403   7.847   8.015   4.717  0.3972 -0.5441 -0.0720
 7075SOL    HW221404   7.706   7.980   4.791  0.1853  0.1114 -0.1555
 7076SOL     OW21405   2.811   4.986   1.928  0.2494 -0.4636  0.5615
 7076SOL    HW121406   2.786   4.957   2.020 -0.8897  0.3232  0.5140
 7076SOL    HW221407   2.828   5.084   1.927 -0.2726 -0.3742 -0.1682
 7077SOL     OW21408   6.313   8.146   0.731 -1.2165  0.1937  0.1460
 7077SOL    HW121409   6.378   8.122   0.659 -0.6461  0.0592  0.7010
 7077SOL    HW221410   6.242   8.205   0.692  0.0026  1.5233 -0.1818
 7078SOL     OW21411   0.863   5.130   4.655  0.3597  0.5331  0.2108
 7078SOL    HW121412   0.876   5.056   4.590 -1.4891 -0.6544  1.1059
 7078SOL    HW221413   0.937   5.197   4.645  2.5640 -1.8143 -0.0575
 7079SOL     OW21414   2.181   6.280   3.959 -0.4593 -0.3634 -0.4695
 7079SOL    HW121415   2.128   6.363   3.942  1.3054  0.5197 -1.9280
 7079SOL    HW221416   2.176   6.220   3.880  0.3548 -0.4678 -0.4512
 7080SOL     OW21417   4.518   8.422   7.205  0.5025  0.2378  0.2285
 7080SOL    HW121418   4.531   8.384   7.113 -0.3917  1.3474 -0.3760
 7080SOL    HW221419   4.421   8.414   7.231  0.6974  0.1775  0.9717
 7081SOL     OW21420   4.331   6.858   6.719  0.1752  0.8581 -0.2891
 7081SOL    HW121421   4.283   6.780   6.760 -0.2254  1.9723  1.4779
 7081SOL    HW221422   4.429   6.850   6.737  0.0408  1.1628  0.6369
 7082SOL     OW21423   6.299   1.003   0.731 -0.1071 -0.0657  0.2084
 7082SOL    HW121424   6.334   0.991   0.638 -1.3269  0.1897 -0.2942
 7082SOL    HW221425   6.261   1.095   0.741  0.5314  0.1042  1.1427
 7083SOL     OW21426   1.107   7.952   7.195  0.4326 -0.1842 -0.3345
 7083SOL    HW121427   1.139   7.947   7.290  1.3863  1.6215 -0.5313
 7083SOL    HW221428   1.113   7.861   7.154  0.6113 -0.8688  1.1231
 7084SOL     OW21429   0.843   4.234   2.630  0.3268  0.3710  0.0290
 7084SOL    HW121430   0.873   4.324   2.600 -1.7973  0.3224 -2.5768
 7084SOL    HW221431   0.919   4.169   2.622  1.4636  1.5944  0.5293
 7085SOL     OW21432   4.618   1.312   3.183 -0.8358  0.3121 -0.1635
 7085SOL    HW121433   4.699   1.323   3.125  0.1736  1.0332  1.3093
 7085SOL    HW221434   4.584   1.219   3.176 -1.5826  0.7176 -2.9169
 7086SOL     OW21435   8.463   0.527   0.960 -0.2023 -0.3550  0.2139
 7086SOL    HW121436   8.536   0.586   0.994 -0.5458  1.2963 -1.7294
 7086SOL    HW221437   8.501   0.461   0.895 -0.1840 -0.6662  0.5394
 7087SOL     OW21438   5.763   4.458   3.156  0.3673  0.1066 -0.2830
 7087SOL    HW121439   5.677   4.435   3.201  0.8476  0.0245  0.6091
 7087SOL    HW221440   5.821   4.511   3.218 -0.2764  2.9440 -1.8987
 7088SOL     OW21441   8.796   5.491   1.358 -0.9503 -0.3513  0.0191
 7088SOL    HW121442   8.793   5.591   1.360 -0.8965 -0.3538  2.3112
 7088SOL    HW221443   8.891   5.461   1.344 -1.0374 -0.1217 -1.2062
 7089SOL     OW21444   0.790   0.955   3.734 -0.4671 -0.0641 -0.2409
 7089SOL    HW121445   0.759   0.860   3.740  0.7310 -0.3654  2.8683
 7089SOL    HW221446   0.890   0.957   3.734 -0.4671  1.2192  0.7324
 7090SOL     OW21447   3.878   2.810   3.335 -1.0223 -0.0110  0.2448
 7090SOL    HW121448   3.873   2.749   3.256  0.4022 -0.2811  0.3414
 7090SOL    HW221449   3.950   2.778   3.398 -2.3404 -0.0036  1.8394
 7091SOL     OW21450   7.607   7.822   2.488  0.2955  0.1400  0.3117
 7091SOL    HW121451   7.524   7.765   2.482  0.2023  0.4209 -1.8387
 7091SOL    HW221452   7.684   7.774   2.447  0.3258  1.3179 -1.1045
 7092SOL     OW21453   6.622   1.275   7.097  0.7024 -0.2154  0.5660
 7092SOL    HW121454   6.571   1.319   7.171  1.3632  0.0963  0.8447
 7092SOL    HW221455   6.676   1.199   7.134 -1.0109 -1.8104 -0.0239
 7093SOL     OW21456   8.084   2.872   5.624  0.6301 -0.8877 -0.3452
 7093SOL    HW121457   8.070   2.970   5.611 -2.2174 -1.3249 -1.3411
 7093SOL    HW221458   8.050   2.846   5.715  1.3968 -0.9650 -0.0764
 7094SOL     OW21459   7.254   6.387   6.865  0.0447 -0.5276  0.2028
 7094SOL    HW121460   7.197   6.447   6.922 -1.0613 -1.1688 -0.2001
 7094SOL    HW221461   7.271   6.301   6.913 -0.1059 -0.6973 -0.0429
 7095SOL     OW21462   8.103   0.931   6.987  0.5415 -0.1635 -0.4715
 7095SOL    HW121463   8.074   1.024   7.011 -0.1379 -0.1802 -1.2164
 7095SOL    HW221464   8.199   0.919   7.012  1.3813  1.5602 -2.5556
 7096SOL     OW21465   5.111   1.768   0.013 -0.2017 -0.1373  0.3778
 7096SOL    HW121466   5.203   1.795   0.039 -0.9501  1.9251  1.1964
 7096SOL    HW221467   5.092   1.676   0.044  1.3467 -0.3382  0.7836
 7097SOL     OW21468   3.217   3.909   1.147 -0.1172 -0.4674 -0.0921
 7097SOL    HW121469   3.130   3.958   1.155 -0.2351 -0.8028  0.9396
 7097SOL    HW221470   3.212   3.825   1.201  1.1577 -0.0299  0.7476
 7098SOL     OW21471   1.318   8.568   3.412  0.0853 -0.1130 -0.5262
 7098SOL    HW121472   1.271   8.504   3.352  1.7220 -1.0904 -0.8257
 7098SOL    HW221473   1.315   8.534   3.506 -1.1951  0.6761 -0.2477
 7099SOL     OW21474   2.275   3.936   0.459 -0.0645  0.0799 -0.7433
 7099SOL    HW121475   2.297   3.856   0.403 -0.3557 -1.7475  1.5751
 7099SOL    HW221476   2.177   3.940   0.475  0.0868  0.0129  0.3220
 7100SOL     OW21477   2.037   3.081   1.034 -0.1820 -0.0788  1.0066
 7100SOL    HW121478   2.019   3.068   1.132  2.1260 -0.4595  1.4422
 7100SOL    HW221479   1.964   3.135   0.994 -2.1797 -1.5061  2.5143
 7101SOL     OW21480   6.241   4.778   2.375  0.5858 -0.4229 -0.1566
 7101SOL    HW121481   6.310   4.734   2.318  1.5927  0.4127  0.3637
 7101SOL    HW221482   6.215   4.866   2.335  1.9793  0.6090  1.0432
 7102SOL     OW21483   7.066   5.327   0.765 -0.0749  0.5068  0.0828
 7102SOL    HW121484   7.059   5.363   0.858 -0.1983  1.7079 -0.3720
 7102SOL    HW221485   7.073   5.227   0.768 -0.4223  0.5051  1.3552
 7103SOL     OW21486   6.361   8.108   8.354 -0.3792  0.1138 -0.6860
 7103SOL    HW121487   6.295   8.163   8.406  0.5014 -0.1803  0.8064
 7103SOL    HW221488   6.385   8.156   8.270  0.2362  1.9665  0.4844
 7104SOL     OW21489   1.003   1.169   8.399  0.5769 -0.4562 -0.5335
 7104SOL    HW121490   0.955   1.136   8.480  0.1322 -1.3145 -1.1304
 7104SOL    HW221491   0.975   1.263   8.380 -0.5456 -0.7947 -0.6204
 7105SOL     OW21492   3.107   3.421   6.295 -0.6644  0.3869 -0.0098
 7105SOL    HW121493   3.057   3.424   6.381 -1.9125 -0.1149 -0.6833
 7105SOL    HW221494   3.170   3.342   6.296 -0.1432  0.7945  0.6896
 7106SOL     OW21495   2.024   6.076   3.159  0.0325  0.2000 -0.2528
 7106SOL    HW121496   2.046   6.021   3.240 -1.2629 -0.9969 -0.6664
 7106SOL    HW221497   2.077   6.161   3.160 -0.4292  0.5300  2.2031
 7107SOL     OW21498   6.352   0.154   4.797  0.5461  0.1955  0.4987
 7107SOL    HW121499   6.430   0.189   4.746  0.0545  0.7878  0.1410
 7107SOL    HW221500   6.383   0.082   4.860  1.0605 -1.0404 -1.1042
 7108SOL     OW21501   2.314   0.617   1.666 -0.9713 -0.2539  0.1779
 7108SOL    HW121502   2.401   0.661   1.644  0.2690 -1.9350  1.5047
 7108SOL    HW221503   2.247   0.639   1.594  0.2526  1.7579 -0.4379
 7109SOL     OW21504   7.943   4.627   5.640 -0.0457 -0.1448 -0.3484
 7109SOL    HW121505   8.013   4.678   5.592  0.0527 -1.3135 -1.5113
 7109SOL    HW221506   7.980   4.590   5.726  0.5246 -0.1107 -0.5811
 7110SOL     OW21507   7.150   2.714   6.889  0.3433 -0.2047 -0.4584
 7110SOL    HW121508   7.241   2.696   6.927  0.6501  2.2785  0.1295
 7110SOL    HW221509   7.083   2.654   6.933  1.2972 -0.2276  1.0239
 7111SOL     OW21510   0.041   0.061   0.063  0.0541  0.0470  0.1851
 7111SOL    HW121511   0.082  -0.015   0.115 -0.4574  0.7242  1.6305
 7111SOL    HW221512  -0.016   0.115   0.124 -1.9406 -0.0887 -1.4758
 7112SOL     OW21513   0.944   3.505   1.217  0.4397 -0.2955  0.1329
 7112SOL    HW121514   0.856   3.502   1.171  0.6394  1.4723 -0.4222
 7112SOL    HW221515   0.996   3.585   1.186  1.7060 -0.5812  1.3978
 7113SOL     OW21516   8.725   6.047   0.706 -0.2277 -0.0126 -0.3996
 7113SOL    HW121517   8.650   6.032   0.771 -0.5335 -1.3848 -1.0284
 7113SOL    HW221518   8.687   6.059   0.614  0.3024 -0.1565 -0.6395
 7114SOL     OW21519   7.475   4.749   0.026 -0.2382 -0.5866 -0.2081
 7114SOL    HW121520   7.448   4.718  -0.065 -2.5420  0.0717  0.1971
 7114SOL    HW221521   7.496   4.847   0.024  1.4463 -0.9078 -0.3300
 7115SOL     OW21522   3.279   4.249   6.659  0.4896  0.0994  0.0737
 7115SOL    HW121523   3.335   4.172   6.690 -1.2955 -0.4063  2.2558
 7115SOL    HW221524   3.203   4.216   6.604 -0.1502  0.3082  0.8191
 7116SOL     OW21525   5.781   5.076   1.260  0.4190  0.9380 -0.4424
 7116SOL    HW121526   5.733   5.114   1.339 -1.0070  1.4935 -1.5311
 7116SOL    HW221527   5.877   5.063   1.283 -0.1162  0.2897  1.6447
 7117SOL     OW21528   8.020   3.298   4.818  0.3147  0.5143 -0.2785
 7117SOL    HW121529   7.921   3.287   4.827  0.4863  0.3900  2.3161
 7117SOL    HW221530   8.040   3.377   4.759 -1.3892  1.7679  0.7317
 7118SOL     OW21531   5.708   5.786   4.153  0.0756 -0.0568  0.4435
 7118SOL    HW121532   5.634   5.780   4.219 -0.8250  1.6694 -0.3268
 7118SOL    HW221533   5.714   5.880   4.118  1.6075 -0.5238 -0.6823
 7119SOL     OW21534   6.140   5.382   7.439 -0.0723  0.4301 -0.4155
 7119SOL    HW121535   6.057   5.334   7.467  0.4175  0.3881  1.0752
 7119SOL    HW221536   6.215   5.316   7.430  0.3191  0.7304  0.4765
 7120SOL     OW21537   8.839   5.363   3.022 -0.1767  0.0303  0.1283
 7120SOL    HW121538   8.882   5.399   2.939 -0.2412  0.8228  0.4243
 7120SOL    HW221539   8.743   5.340   3.002 -0.0288 -0.3511 -0.1614
 7121SOL     OW21540   3.073   8.471   1.913 -1.0048 -0.3937 -0.1085
 7121SOL    HW121541   3.116   8.561   1.922 -0.8033 -0.4932 -0.0821
 7121SOL    HW221542   2.986   8.471   1.962 -0.4270 -0.5978  0.9445
 7122SOL     OW21543   5.939   1.876   0.334 -0.2209 -0.3616  0.1338
 7122SOL    HW121544   5.853   1.914   0.300  0.9611  0.5163 -2.0635
 7122SOL    HW221545   5.971   1.931   0.411 -2.0173 -1.2475  1.6110
 7123SOL     OW21546   8.437   4.439   7.951  0.1470 -0.3294  0.0111
 7123SOL    HW121547   8.408   4.362   7.894 -0.0369 -2.3022  2.5938
 7123SOL    HW221548   8.359   4.474   8.003  0.4674  0.8907 -0.2835
 7124SOL     OW21549   3.318   0.035   8.353  0.3630  0.3657  0.3937
 7124SOL    HW121550   3.256   0.109   8.328 -1.5217 -1.2799 -0.0512
 7124SOL    HW221551   3.283  -0.013   8.433  1.4967 -0.1345  0.6175
 7125SOL     OW21552   4.195   7.210   4.986  0.3813  0.6231 -0.2344
 7125SOL    HW121553   4.275   7.222   4.928 -0.2438  0.6893 -1.1136
 7125SOL    HW221554   4.123   7.165   4.933 -1.5748  4.0481 -0.7255
 7126SOL     OW21555   7.991   7.504   3.051  0.4213 -1.0594  0.1125
 7126SOL    HW121556   7.937   7.424   3.079  1.3816 -1.8050 -0.1355
 7126SOL    HW221557   8.024   7.491   2.958 -1.0863  0.5338 -0.6975
 7127SOL     OW21558   8.406   6.275   1.400  0.1433  0.2670 -0.3817
 7127SOL    HW121559   8.416   6.186   1.356 -1.3370 -0.8447  1.3666
 7127SOL    HW221560   8.488   6.295   1.455 -0.2962 -1.0110  0.8105
 7128SOL     OW21561   0.702   7.889   1.225 -0.2328  0.6599  0.5268
 7128SOL    HW121562   0.661   7.800   1.206  2.5978 -0.6158 -0.1016
 7128SOL    HW221563   0.630   7.959   1.228 -2.2717 -1.1285 -2.0207
 7129SOL     OW21564   6.381   3.634   7.995 -0.1313  0.3131  0.0827
 7129SOL    HW121565   6.425   3.695   7.930  0.3895 -0.4599 -0.3145
 7129SOL    HW221566   6.448   3.567   8.028 -1.0307 -1.0668 -0.7458
 7130SOL     OW21567   3.496   2.774   5.284  0.1735 -0.1265 -0.5289
 7130SOL    HW121568   3.585   2.816   5.265 -0.4427  1.3559 -0.2865
 7130SOL    HW221569   3.470   2.793   5.378 -2.3383  3.4084 -1.7034
 7131SOL     OW21570   6.134   3.190   2.810 -0.0895 -0.1990  0.0031
 7131SOL    HW121571   6.142   3.284   2.777  2.3005  0.2977  1.7064
 7131SOL    HW221572   6.099   3.131   2.737 -2.1185  2.0342 -0.9604
 7132SOL     OW21573   6.031   5.033   8.833 -0.3569  0.3088 -0.1733
 7132SOL    HW121574   6.090   4.960   8.799 -0.0704 -0.0761  1.0881
 7132SOL    HW221575   6.086   5.105   8.873 -0.6829  0.7657 -0.5376
 7133SOL     OW21576   7.467   6.131   7.528 -0.2449  0.0957  0.0351
 7133SOL    HW121577   7.526   6.212   7.523 -0.5150  0.4270  1.7123
 7133SOL    HW221578   7.489   6.069   7.452  2.2784  0.1907  0.6079
 7134SOL     OW21579   8.828   1.807   5.708 -0.5306 -0.4556 -0.0366
 7134SOL    HW121580   8.891   1.791   5.632 -0.2050  1.1609 -0.1478
 7134SOL    HW221581   8.835   1.733   5.774  3.1118  0.6755  1.0617
 7135SOL     OW21582   3.994   0.261   5.147 -0.0192  0.0934 -0.4550
 7135SOL    HW121583   4.014   0.252   5.050  1.0539 -1.0363 -0.1602
 7135SOL    HW221584   3.942   0.181   5.177 -1.2225  0.9131 -0.2861
 7136SOL     OW21585   2.147   3.648   4.424 -0.2249 -0.2589 -0.8004
 7136SOL    HW121586   2.222   3.647   4.357  0.8889 -0.3305  0.4205
 7136SOL    HW221587   2.081   3.576   4.400  1.6850 -2.3308 -0.1597
 7137SOL     OW21588   3.389   5.346   5.471 -0.6722 -0.3964  0.5450
 7137SOL    HW121589   3.289   5.339   5.470 -1.0183  2.9108 -0.3928
 7137SOL    HW221590   3.416   5.437   5.504  1.9986 -0.9468  0.1038
 7138SOL     OW21591   5.728   4.325   4.669  0.2923 -0.0161  0.5244
 7138SOL    HW121592   5.688   4.374   4.747  2.1394  0.7247  1.0859
 7138SOL    HW221593   5.753   4.233   4.697  0.0986 -0.0639  0.5383
 7139SOL     OW21594   5.141   0.903   2.652  0.1103  0.7055  0.3433
 7139SOL    HW121595   5.131   0.931   2.556  0.1063  2.2099  0.7550
 7139SOL    HW221596   5.237   0.883   2.671  0.1544  0.6766  0.0934
 7140SOL     OW21597   7.075   6.007   0.931 -0.4406 -0.6436 -0.8342
 7140SOL    HW121598   7.100   6.100   0.905  2.3618 -0.9250  0.4604
 7140SOL    HW221599   7.103   5.944   0.858 -1.4325 -0.5896 -1.2760
 7141SOL     OW21600   2.191   2.420   7.899 -0.1512  0.4197 -0.0081
 7141SOL    HW121601   2.102   2.401   7.942 -0.1809  2.0141  0.6892
 7141SOL    HW221602   2.243   2.335   7.892 -0.5764 -0.0759  2.2339
 7142SOL     OW21603   3.845   7.506   4.827  0.0557  0.0827  0.3563
 7142SOL    HW121604   3.922   7.457   4.789  1.1485  0.7362  1.6289
 7142SOL    HW221605   3.827   7.589   4.774 -1.4766 -1.3419 -1.4929
 7143SOL     OW21606   6.925   8.686   0.040  0.3997  0.2374  0.0627
 7143SOL    HW121607   6.845   8.684   0.100 -0.0737  1.0909 -0.5129
 7143SOL    HW221608   7.006   8.655   0.091 -0.4410 -1.5758  0.3795
 7144SOL     OW21609   2.082   4.781   3.681  0.3424 -0.2958  0.1624
 7144SOL    HW121610   1.993   4.759   3.722  0.2007  1.2236  0.7654
 7144SOL    HW221611   2.081   4.877   3.652  1.4923 -0.5195 -0.6460
 7145SOL     OW21612   8.437   3.753   6.972  0.6698  0.2810 -0.8173
 7145SOL    HW121613   8.400   3.666   6.938  1.6007 -0.1203 -0.8410
 7145SOL    HW221614   8.536   3.756   6.955  0.7392  1.1107 -0.3166
 7146SOL     OW21615   1.755   1.850   1.384  0.0665  0.2735  0.4458
 7146SOL    HW121616   1.694   1.890   1.316 -0.3486 -0.8222  0.1590
 7146SOL    HW221617   1.767   1.753   1.365  3.9633  0.8618 -1.0737
 7147SOL     OW21618   5.134   5.608   3.059 -0.3711  0.5656  0.6841
 7147SOL    HW121619   5.205   5.553   3.016 -2.2849 -0.6217 -1.1470
 7147SOL    HW221620   5.157   5.705   3.051  1.4279  0.1911  0.9607
 7148SOL     OW21621   5.394   3.797   0.068 -0.1577  0.1634  0.2426
 7148SOL    HW121622   5.479   3.845   0.090 -0.7795  1.7788 -0.7264
 7148SOL    HW221623   5.345   3.847  -0.003 -0.7558 -2.0549 -0.9928
 7149SOL     OW21624   6.541   6.676   6.664 -0.0843  0.6159 -0.2465
 7149SOL    HW121625   6.505   6.667   6.757  0.3233  0.8146 -0.0681
 7149SOL    HW221626   6.640   6.668   6.666 -0.0944  0.3697 -0.7020
 7150SOL     OW21627   5.819   7.875   0.047  0.1277 -0.3532  0.2853
 7150SOL    HW121628   5.866   7.920  -0.029 -0.3404  2.4009  1.4753
 7150SOL    HW221629   5.887   7.842   0.113  0.4891  0.5160  0.3678
 7151SOL     OW21630   2.484   8.853   5.967  0.3095  0.2345  0.1220
 7151SOL    HW121631   2.561   8.794   5.941  0.7890  0.1790  1.5895
 7151SOL    HW221632   2.399   8.812   5.932  0.8431 -0.1591 -0.7681
 7152SOL     OW21633   0.361   3.321   0.338 -0.3557 -0.1275  0.3226
 7152SOL    HW121634   0.438   3.375   0.304  0.0804 -1.0072 -0.1246
 7152SOL    HW221635   0.299   3.380   0.389 -0.1865  0.9052 -0.6316
 7153SOL     OW21636   6.742   1.852   1.601  0.1174 -0.0299  0.2784
 7153SOL    HW121637   6.679   1.916   1.556  1.1179 -0.4211 -1.8428
 7153SOL    HW221638   6.826   1.900   1.626  0.1854 -0.1515  0.2824
 7154SOL     OW21639   1.287   3.569   6.809 -0.3820 -0.1803  0.3519
 7154SOL    HW121640   1.214   3.637   6.798  1.6159  2.0064 -0.1390
 7154SOL    HW221641   1.306   3.556   6.907 -0.4231  0.3487  0.4305
 7155SOL     OW21642   8.574   6.653   0.193 -0.2392 -1.0587  0.4367
 7155SOL    HW121643   8.594   6.634   0.097  0.3400  0.5330  0.2156
 7155SOL    HW221644   8.604   6.576   0.249 -0.0895 -1.7745 -0.5888
 7156SOL     OW21645   8.280   7.579   6.211  0.1469 -0.4509 -0.5856
 7156SOL    HW121646   8.209   7.599   6.143  0.2966  2.0139 -0.1280
 7156SOL    HW221647   8.237   7.540   6.293 -0.7916  1.3556 -0.1718
 7157SOL     OW21648   2.826   8.099   2.568 -0.0719 -0.2854  0.0795
 7157SOL    HW121649   2.803   8.039   2.492  0.5297 -0.0123 -0.3329
 7157SOL    HW221650   2.744   8.147   2.599 -0.4234 -0.8074 -0.0417
 7158SOL     OW21651   4.860   6.065   8.351  0.1115 -0.4563 -0.4128
 7158SOL    HW121652   4.917   5.993   8.391 -1.4207 -1.8492 -0.5930
 7158SOL    HW221653   4.900   6.095   8.264  1.7461  0.2776  0.5470
 7159SOL     OW21654   5.972   4.023   0.023 -0.0396 -0.5614  0.0958
 7159SOL    HW121655   6.020   4.092  -0.031  0.0756 -0.3537  0.4664
 7159SOL    HW221656   5.926   4.066   0.100 -0.7839 -0.7644 -0.2267
 7160SOL     OW21657   1.543   3.427   0.337  0.7136 -0.0595  0.7288
 7160SOL    HW121658   1.513   3.497   0.402  0.4582  0.3898  0.1312
 7160SOL    HW221659   1.593   3.355   0.387  3.0715  1.6973  1.0764
 7161SOL     OW21660   6.451   5.696   4.801  0.0382  0.1936  0.4266
 7161SOL    HW121661   6.525   5.675   4.737 -2.1423  0.3562 -2.3720
 7161SOL    HW221662   6.421   5.611   4.845 -1.1196 -0.7825 -2.0339
 7162SOL     OW21663   4.338   2.127   5.557 -0.2292 -0.5202  0.1581
 7162SOL    HW121664   4.268   2.179   5.606 -0.5629 -1.6458  0.9083
 7162SOL    HW221665   4.394   2.076   5.623  0.3439 -0.8107 -0.5333
 7163SOL     OW21666   8.785   7.244   7.301 -0.5087 -0.2867  0.1341
 7163SOL    HW121667   8.837   7.321   7.340  1.7701 -1.4432 -0.4746
 7163SOL    HW221668   8.722   7.279   7.231  0.7891  1.0058 -0.4498
 7164SOL     OW21669   8.430   7.252   4.079 -0.0117 -0.1974 -0.0492
 7164SOL    HW121670   8.420   7.199   4.163 -0.4400 -1.5210 -0.9043
 7164SOL    HW221671   8.414   7.349   4.099  0.0759 -0.4622  1.4135
 7165SOL     OW21672   2.270   1.645   6.966 -0.3901 -0.0009  0.3593
 7165SOL    HW121673   2.323   1.625   6.883 -1.2571  2.6082 -0.9371
 7165SOL    HW221674   2.332   1.673   7.039  0.2579 -0.5239  0.0255
 7166SOL     OW21675   0.399   4.148   0.494  0.2991 -0.0135  0.3737
 7166SOL    HW121676   0.475   4.165   0.557  0.4901  1.2648 -0.1656
 7166SOL    HW221677   0.336   4.225   0.496 -0.1977 -0.3910 -0.2860
 7167SOL     OW21678   5.848   1.515   0.685  0.0665  0.2813 -0.8649
 7167SOL    HW121679   5.874   1.604   0.723 -0.9743 -0.0661  0.8095
 7167SOL    HW221680   5.843   1.521   0.586 -0.4822  2.2358 -0.7596
 7168SOL     OW21681   6.446   6.928   4.288 -0.2587 -0.2975  0.5183
 7168SOL    HW121682   6.433   6.957   4.193  0.8004  1.0467  0.7614
 7168SOL    HW221683   6.377   6.859   4.311 -1.4689  0.4150 -0.7800
 7169SOL     OW21684   0.066   2.194   3.502  0.2862 -0.1008  1.0209
 7169SOL    HW121685   0.117   2.140   3.569 -0.6202 -1.5029  0.6168
 7169SOL    HW221686   0.031   2.276   3.546  2.0141  0.4034  1.5545
 7170SOL     OW21687   8.832   1.115   8.093 -0.0975  1.1679 -0.8558
 7170SOL    HW121688   8.803   1.021   8.112  1.0548  0.5655 -1.9258
 7170SOL    HW221689   8.920   1.114   8.045  0.6056  2.8489  0.2797
 7171SOL     OW21690   2.391   6.792   5.997 -0.0431  0.0174 -0.2440
 7171SOL    HW121691   2.402   6.842   6.083  0.6166 -0.1139 -0.2521
 7171SOL    HW221692   2.355   6.701   6.017 -0.8475  0.3298 -0.1963
 7172SOL     OW21693   2.830   8.570   8.697 -0.3613 -0.1566 -0.1989
 7172SOL    HW121694   2.903   8.504   8.712 -0.3996 -0.4893 -1.3705
 7172SOL    HW221695   2.754   8.552   8.760 -0.5422 -1.4978 -0.7706
 7173SOL     OW21696   7.884   5.941   2.487 -0.1631  0.1271 -0.0937
 7173SOL    HW121697   7.912   5.954   2.582 -0.3133  0.1318 -0.0503
 7173SOL    HW221698   7.791   5.905   2.484 -0.4239  0.7915 -0.2515
 7174SOL     OW21699   1.400   3.857   7.062 -0.0743  0.2844 -0.7466
 7174SOL    HW121700   1.485   3.870   7.113 -0.1198  1.5000 -0.9609
 7174SOL    HW221701   1.421   3.825   6.970  0.1871  0.9495 -0.9244
 7175SOL     OW21702   3.685   8.294   4.149  0.0823  0.0462  0.3492
 7175SOL    HW121703   3.720   8.356   4.080 -1.8173  1.9602  0.9662
 7175SOL    HW221704   3.622   8.229   4.107  1.0637 -0.6249 -0.1053
 7176SOL     OW21705   1.020   3.639   8.350 -0.2719 -0.2106  0.0865
 7176SOL    HW121706   1.019   3.635   8.449  0.1302  1.1814  0.1656
 7176SOL    HW221707   0.976   3.557   8.313  0.9744 -1.5127  1.3633
 7177SOL     OW21708   1.241   0.626   8.554 -0.3508 -0.4498  0.2982
 7177SOL    HW121709   1.173   0.552   8.555  0.1584 -0.9523  2.1202
 7177SOL    HW221710   1.211   0.699   8.615 -0.4244  0.4844 -0.8265
 7178SOL     OW21711   3.648   1.092   2.755 -0.2379 -0.2968  0.4787
 7178SOL    HW121712   3.617   1.121   2.664  1.1518 -0.2905 -0.0141
 7178SOL    HW221713   3.613   1.156   2.824 -0.8429  0.0196 -0.1100
 7179SOL     OW21714   2.147   1.553   0.517  0.2344 -0.5412 -1.0638
 7179SOL    HW121715   2.239   1.581   0.541 -0.6874 -0.4543  3.0946
 7179SOL    HW221716   2.084   1.629   0.531 -0.7310 -1.0734 -2.2502
 7180SOL     OW21717   2.128   8.343   3.328  0.6126  0.0428  0.7435
 7180SOL    HW121718   2.135   8.307   3.235  0.7374 -1.1084  1.1786
 7180SOL    HW221719   2.207   8.401   3.347 -0.3900  1.9260 -0.5166
 7181SOL     OW21720   5.172   3.880   2.551 -0.8113  0.2046 -0.0107
 7181SOL    HW121721   5.146   3.906   2.458  0.2754  1.2615 -0.0343
 7181SOL    HW221722   5.255   3.825   2.549  0.9943  2.7301  0.4541
 7182SOL     OW21723   0.128   7.878   2.720 -0.1715  0.4439  0.4233
 7182SOL    HW121724   0.179   7.830   2.649 -2.3881  1.3174 -1.8908
 7182SOL    HW221725   0.193   7.927   2.780  1.8052 -1.1510 -0.3089
 7183SOL     OW21726   0.272   5.918   4.240  0.1841 -0.0642  0.3952
 7183SOL    HW121727   0.230   5.906   4.330 -0.6911 -0.4755 -0.0525
 7183SOL    HW221728   0.306   6.011   4.231 -0.7099  0.3142  0.7560
 7184SOL     OW21729   3.615   2.505   7.189 -0.1532 -0.2974  0.2992
 7184SOL    HW121730   3.615   2.595   7.147  1.4564  0.0974  1.0678
 7184SOL    HW221731   3.657   2.439   7.127  0.7081 -0.0489  0.6023
 7185SOL     OW21732   5.966   6.643   6.837  0.1730 -0.5359 -0.7010
 7185SOL    HW121733   5.962   6.723   6.778  0.5507 -0.0775 -0.1179
 7185SOL    HW221734   6.039   6.582   6.808  1.1963  0.3074  0.0453
 7186SOL     OW21735   6.503   5.976   4.397 -0.1004  0.7720  0.2873
 7186SOL    HW121736   6.479   6.073   4.402 -1.0337  0.5788 -0.1698
 7186SOL    HW221737   6.421   5.921   4.415  0.7619  0.0449  2.3118
 7187SOL     OW21738   7.184   5.993   2.536  0.1076  0.0863 -0.3141
 7187SOL    HW121739   7.173   5.896   2.512  2.3547  0.1606 -1.9948
 7187SOL    HW221740   7.158   6.007   2.631 -1.6792 -1.8653 -0.4465
 7188SOL     OW21741   4.413   3.244   8.145 -0.1021  0.0806  0.2061
 7188SOL    HW121742   4.329   3.189   8.143 -1.1061  1.5734 -0.9685
 7188SOL    HW221743   4.429   3.285   8.055  1.1375  0.9238  0.7791
 7189SOL     OW21744   1.427   1.239   5.417 -0.4470  0.5713  0.0488
 7189SOL    HW121745   1.328   1.252   5.416 -0.4679  0.4079 -0.0151
 7189SOL    HW221746   1.472   1.327   5.436 -0.4986  1.1958 -2.3748
 7190SOL     OW21747   2.936   5.204   8.768  0.8571 -0.5127  0.0129
 7190SOL    HW121748   3.001   5.135   8.736  0.3457 -0.5215 -1.0609
 7190SOL    HW221749   2.986   5.281   8.808  1.5037 -0.7811 -0.2674
 7191SOL     OW21750   3.154   7.174   4.407  0.2652 -0.2451  0.0323
 7191SOL    HW121751   3.173   7.091   4.459  0.8097  0.0849  0.3637
 7191SOL    HW221752   3.089   7.152   4.333  0.6300 -1.0231 -0.0727
 7192SOL     OW21753   7.707   6.147   6.984  0.1540  0.4018 -0.0834
 7192SOL    HW121754   7.699   6.237   6.942  1.9615  1.1856  1.1469
 7192SOL    HW221755   7.755   6.085   6.923  1.1863  1.0234  0.0788
 7193SOL     OW21756   8.557   1.070   1.610  0.2418  0.2542 -0.4160
 7193SOL    HW121757   8.560   1.107   1.703  1.1749  0.1281 -0.3925
 7193SOL    HW221758   8.558   1.146   1.544 -0.7932  0.3606 -0.3394
 7194SOL     OW21759   3.912   3.319   0.469 -0.5813  0.1616  0.0653
 7194SOL    HW121760   3.963   3.386   0.523 -0.0395  0.0373 -0.2843
 7194SOL    HW221761   3.940   3.226   0.495 -1.3865  0.0554  0.6038
 7195SOL     OW21762   8.271   4.339   6.322 -0.4558 -0.1128  0.2115
 7195SOL    HW121763   8.180   4.381   6.321 -0.1691  0.6003 -2.0078
 7195SOL    HW221764   8.341   4.410   6.324  0.0858 -0.6484  1.4448
 7196SOL     OW21765   4.746   4.980   1.073 -0.6979  0.2375 -0.0947
 7196SOL    HW121766   4.825   4.961   1.131 -0.3909  0.0323 -0.5744
 7196SOL    HW221767   4.777   5.023   0.988 -1.1373  0.4692 -0.1412
 7197SOL     OW21768   8.700   1.880   1.481  0.7060  0.0656  0.0840
 7197SOL    HW121769   8.648   1.933   1.548 -2.0355 -0.1946 -1.6485
 7197SOL    HW221770   8.748   1.806   1.526 -1.0131 -0.0905  1.7786
 7198SOL     OW21771   1.930   1.617   4.387 -0.1660 -0.0121  0.5296
 7198SOL    HW121772   1.908   1.519   4.396  0.1270 -0.2687 -1.1537
 7198SOL    HW221773   1.996   1.629   4.313 -1.6590  1.6527 -0.5932
 7199SOL     OW21774   8.625   8.789   3.775 -0.0153  0.0268 -0.1223
 7199SOL    HW121775   8.568   8.867   3.747 -0.8082 -0.6849 -0.5270
 7199SOL    HW221776   8.578   8.704   3.753  0.2309 -0.5735  1.5556
 7200SOL     OW21777   3.088   6.434   5.022 -0.8879 -0.8739  0.2519
 7200SOL    HW121778   3.097   6.379   4.939  0.6150  0.2165 -0.3394
 7200SOL    HW221779   3.070   6.374   5.100  0.7670 -2.2494 -0.3600
 7201SOL     OW21780   0.554   5.035   8.371  0.4976  0.2967 -0.2750
 7201SOL    HW121781   0.579   5.131   8.384 -0.3789  0.5198 -0.1580
 7201SOL    HW221782   0.454   5.026   8.376  0.5905 -0.6596 -0.0443
 7202SOL     OW21783   3.230   4.929   7.006 -0.4572 -0.0534 -0.0011
 7202SOL    HW121784   3.264   4.860   6.942 -0.1866  0.6727 -0.6388
 7202SOL    HW221785   3.136   4.953   6.981 -0.3819  0.1678 -0.0643
 7203SOL     OW21786   1.529   4.989   3.037  0.8013  0.3518  0.1121
 7203SOL    HW121787   1.460   4.919   3.058 -0.3786  0.4209 -2.9707
 7203SOL    HW221788   1.613   4.945   3.006 -0.2675  0.1596 -2.7798
 7204SOL     OW21789   5.025   1.245   3.532  0.0160  0.0337  0.0849
 7204SOL    HW121790   5.101   1.191   3.568  0.6856  0.1152 -1.1368
 7204SOL    HW221791   4.940   1.194   3.540  0.0351  0.2175  2.1385
 7205SOL     OW21792   1.245   6.721   0.879  0.2895  0.3748 -0.5328
 7205SOL    HW121793   1.168   6.784   0.872 -0.0789 -0.1494 -1.4500
 7205SOL    HW221794   1.212   6.631   0.906  0.6661  0.2896 -0.3455
 7206SOL     OW21795   8.280   2.216   4.399 -0.8651 -0.0196  0.0042
 7206SOL    HW121796   8.195   2.268   4.388  0.4575  2.1031 -0.7414
 7206SOL    HW221797   8.348   2.271   4.447  1.2803 -0.1573 -2.6059
 7207SOL     OW21798   6.262   1.819   8.477 -0.4371 -0.0061  0.0184
 7207SOL    HW121799   6.258   1.832   8.576  0.1064  0.4771 -0.0102
 7207SOL    HW221800   6.173   1.792   8.442 -0.2716 -1.7596  0.8436
 7208SOL     OW21801   8.303   3.546   4.957  0.1842 -0.3258  0.3021
 7208SOL    HW121802   8.367   3.469   4.951  0.9819  0.3477 -0.0326
 7208SOL    HW221803   8.219   3.516   5.003  0.4090 -1.4340  0.0194
 7209SOL     OW21804   7.813   2.397   4.256 -0.3023 -0.3385 -0.0979
 7209SOL    HW121805   7.720   2.369   4.279 -0.7355  0.3940 -0.9157
 7209SOL    HW221806   7.817   2.426   4.160  0.6846 -0.0159  0.0294
 7210SOL     OW21807   1.925   2.091   0.196 -0.4913 -0.3649 -0.7942
 7210SOL    HW121808   1.863   2.154   0.150 -1.1780 -1.2385 -1.1013
 7210SOL    HW221809   1.872   2.024   0.248  0.1745 -1.1825 -1.1335
 7211SOL     OW21810   1.936   7.996   7.991  0.1517 -0.0532  0.0661
 7211SOL    HW121811   2.020   7.999   7.937  0.7113 -0.8872  0.8388
 7211SOL    HW221812   1.905   8.089   8.009  0.1754  0.2475 -1.3193
 7212SOL     OW21813   1.218   8.408   4.890 -0.2356  0.0675  0.3819
 7212SOL    HW121814   1.189   8.503   4.876 -1.2009  0.1533  2.6011
 7212SOL    HW221815   1.162   8.366   4.961  1.0299 -1.7710  0.3657
 7213SOL     OW21816   1.181   6.073   1.783  0.1918 -0.3220 -0.5978
 7213SOL    HW121817   1.276   6.101   1.768  0.9568 -1.8814  0.8954
 7213SOL    HW221818   1.165   6.062   1.881 -1.3922 -0.5812 -0.8564
 7214SOL     OW21819   4.891   8.751   8.489  0.7135  0.1229  0.1731
 7214SOL    HW121820   4.848   8.838   8.464 -0.5291 -0.6083 -0.3376
 7214SOL    HW221821   4.883   8.687   8.413  1.9051 -0.3548  0.4212
 7215SOL     OW21822   8.233   4.040   7.001  0.0057  0.4121  0.3219
 7215SOL    HW121823   8.262   3.971   6.934  1.2226  2.2478 -1.1406
 7215SOL    HW221824   8.141   4.072   6.979  0.4741  1.1437 -0.6332
 7216SOL     OW21825   0.920   1.649   5.696  0.3860  0.1937  0.2806
 7216SOL    HW121826   0.827   1.635   5.662  1.0739 -0.0113 -1.5774
 7216SOL    HW221827   0.940   1.747   5.698  0.2945  0.2132  0.2423
 7217SOL     OW21828   2.962   5.680   7.872  0.1767 -0.1005 -0.1353
 7217SOL    HW121829   3.037   5.727   7.918 -0.1108  0.4101 -0.1876
 7217SOL    HW221830   2.912   5.744   7.814  0.8062 -0.8236 -1.5266
 7218SOL     OW21831   2.558   4.079   6.812 -0.3060  0.2226  0.0286
 7218SOL    HW121832   2.607   4.160   6.779  2.5147 -0.3713  2.4396
 7218SOL    HW221833   2.485   4.107   6.874  1.3226  0.9569  1.6802
 7219SOL     OW21834   8.041   0.380   2.809 -0.1483 -0.2399 -0.0443
 7219SOL    HW121835   7.975   0.455   2.814 -1.0581 -0.9183 -1.4041
 7219SOL    HW221836   8.090   0.385   2.723  1.4153  0.0835  0.8315
 7220SOL     OW21837   3.670   7.022   8.389 -0.5172 -0.1045  0.0616
 7220SOL    HW121838   3.634   6.937   8.351 -1.1905  0.7193 -1.2592
 7220SOL    HW221839   3.763   7.008   8.423 -0.2434 -1.1453 -1.0406
 7221SOL     OW21840   5.474   0.114   3.062  0.1371  0.1083 -0.6994
 7221SOL    HW121841   5.459   0.047   2.990  0.4873 -0.4115 -0.2937
 7221SOL    HW221842   5.562   0.097   3.107 -1.4998 -1.7464  2.1172
 7222SOL     OW21843   1.276   1.116   4.688  0.2216  0.1216  0.9119
 7222SOL    HW121844   1.246   1.048   4.755  0.0305 -1.0204 -0.2957
 7222SOL    HW221845   1.321   1.192   4.735  0.8060 -1.0305  2.2583
 7223SOL     OW21846   8.446   1.866   6.028  0.4609 -0.0443 -0.5328
 7223SOL    HW121847   8.527   1.808   6.020  0.4394  0.0866 -2.1138
 7223SOL    HW221848   8.468   1.958   5.995 -0.0004  0.3405  0.2056
 7224SOL     OW21849   0.684   4.532   8.127 -0.5218  0.0789  0.3948
 7224SOL    HW121850   0.593   4.574   8.120 -0.5937  0.2333  1.9420
 7224SOL    HW221851   0.754   4.603   8.122 -0.5315  0.0861  0.3594
 7225SOL     OW21852   1.847   8.749   3.727  0.4661  0.6333 -0.4527
 7225SOL    HW121853   1.877   8.785   3.639  3.3582 -0.2436  0.0598
 7225SOL    HW221854   1.767   8.691   3.713  0.5451  0.9146 -2.4252
 7226SOL     OW21855   0.908   0.373   6.195  0.9745  0.3675 -0.5534
 7226SOL    HW121856   0.962   0.450   6.230  1.1849 -0.0253  0.0108
 7226SOL    HW221857   0.815   0.404   6.175  0.1525  0.1958  2.4636
 7227SOL     OW21858   0.204   1.284   6.280  0.1594 -0.3029 -0.3707
 7227SOL    HW121859   0.223   1.207   6.219 -0.9855 -0.4366 -0.5675
 7227SOL    HW221860   0.175   1.249   6.370  1.5219 -0.1047  0.1756
 7228SOL     OW21861   7.205   2.896   1.148  0.4620 -0.3121  0.2243
 7228SOL    HW121862   7.220   2.856   1.058 -2.5888  0.2711 -0.6443
 7228SOL    HW221863   7.210   2.824   1.217  0.1682 -1.2785 -0.7291
 7229SOL     OW21864   0.988   2.667   5.042  0.2016 -0.1839  0.2921
 7229SOL    HW121865   0.910   2.721   5.073  0.2336  1.9985 -2.9384
 7229SOL    HW221866   1.059   2.668   5.113 -1.7182 -0.2511  2.3328
 7230SOL     OW21867   5.337   1.271   0.447 -0.0736 -0.3814 -0.1393
 7230SOL    HW121868   5.287   1.331   0.385 -0.2727  0.1591  0.5242
 7230SOL    HW221869   5.320   1.176   0.424 -0.6991 -0.1870 -0.4749
 7231SOL     OW21870   4.922   2.330   1.497 -0.2663 -0.6864 -0.1952
 7231SOL    HW121871   4.941   2.355   1.403 -1.8279  0.6743 -0.1800
 7231SOL    HW221872   4.863   2.399   1.540 -0.1054 -1.5837  1.5883
 7232SOL     OW21873   5.329   6.522   8.415  0.0855  0.2120  0.7439
 7232SOL    HW121874   5.299   6.616   8.405  1.0800  0.4418 -0.2256
 7232SOL    HW221875   5.374   6.511   8.504  0.4583  0.7870  0.6279
 7233SOL     OW21876   3.035   2.104   7.558  0.4375  0.0640 -0.1506
 7233SOL    HW121877   2.946   2.070   7.587  0.0019 -1.4729 -2.9706
 7233SOL    HW221878   3.100   2.097   7.634 -1.1714 -1.3386  1.1608
 7234SOL     OW21879   0.461   2.921   8.603 -0.1752 -0.1022  0.6402
 7234SOL    HW121880   0.429   2.941   8.695 -2.4758  0.0150 -0.1267
 7234SOL    HW221881   0.473   3.007   8.553  0.1861 -0.2050  0.5480
 7235SOL     OW21882   4.491   1.457   1.766  0.4161  0.3104 -0.7940
 7235SOL    HW121883   4.509   1.551   1.796  1.0243  0.4514 -1.5422
 7235SOL    HW221884   4.478   1.398   1.845  2.3157  0.6009 -0.2153
 7236SOL     OW21885   2.300   2.320   3.485 -0.2715  0.6305 -0.2852
 7236SOL    HW121886   2.295   2.270   3.571  0.9165 -0.3311 -0.7455
 7236SOL    HW221887   2.222   2.382   3.477 -2.0887 -1.4847  0.0900
 7237SOL     OW21888   6.024   2.521   3.376  0.1085  0.3735  0.0005
 7237SOL    HW121889   6.060   2.577   3.451  0.9711  0.0825 -0.1767
 7237SOL    HW221890   6.048   2.564   3.289  0.4324 -0.0675 -0.1295
 7238SOL     OW21891   7.583   8.515   4.331  0.1167  0.1540  0.0918
 7238SOL    HW121892   7.530   8.449   4.278  0.0815  1.0088 -0.9664
 7238SOL    HW221893   7.649   8.467   4.388  0.4499 -0.7698 -1.0493
 7239SOL     OW21894   1.154   2.702   7.320  0.8858 -0.4267  0.2180
 7239SOL    HW121895   1.073   2.758   7.306  1.6900  0.3487 -1.6910
 7239SOL    HW221896   1.211   2.743   7.392 -2.0276 -2.9663  4.3808
 7240SOL     OW21897   7.629   7.831   5.135  0.7982  0.0715 -0.8066
 7240SOL    HW121898   7.543   7.783   5.153  1.1004 -0.5279 -0.9066
 7240SOL    HW221899   7.615   7.900   5.064  0.3174  0.2368 -0.5492
 7241SOL     OW21900   4.711   3.783   5.847  0.4099 -0.4145 -0.0940
 7241SOL    HW121901   4.644   3.797   5.921  0.0088 -0.5824 -0.4174
 7241SOL    HW221902   4.733   3.870   5.804  1.9863 -0.0485  1.3505
 7242SOL     OW21903   5.877   3.997   7.771  0.0028 -0.0379 -0.5055
 7242SOL    HW121904   5.876   4.092   7.803  0.2462 -0.1307 -0.2114
 7242SOL    HW221905   5.790   3.975   7.728 -0.4519  0.0084  0.3681
 7243SOL     OW21906   8.381   6.037   7.421 -0.1876 -0.7593  0.3230
 7243SOL    HW121907   8.335   6.033   7.332  0.6432 -0.0464 -0.1488
 7243SOL    HW221908   8.403   5.945   7.451 -1.2898 -1.0704  0.2322
 7244SOL     OW21909   1.353   3.548   3.482 -0.0874 -0.1022 -0.2566
 7244SOL    HW121910   1.438   3.563   3.432 -0.9492  4.5649 -0.7693
 7244SOL    HW221911   1.369   3.556   3.580  0.0567  1.3885 -0.3791
 7245SOL     OW21912   7.176   2.966   5.548 -0.1936  0.0392  0.0984
 7245SOL    HW121913   7.105   2.897   5.560 -0.5102  0.3859  0.2184
 7245SOL    HW221914   7.253   2.944   5.608 -0.7036  0.3346  0.8676
 7246SOL     OW21915   7.224   5.596   7.126  0.3777  0.8310 -0.2284
 7246SOL    HW121916   7.222   5.497   7.142  2.6008  0.8886  0.7807
 7246SOL    HW221917   7.314   5.623   7.093  0.7051  2.8431  2.0161
 7247SOL     OW21918   6.262   0.553   1.240 -0.0628 -0.5489 -0.5579
 7247SOL    HW121919   6.361   0.569   1.242 -0.0897 -0.4174 -0.3167
 7247SOL    HW221920   6.232   0.521   1.330 -0.4276  0.4914 -0.3066
 7248SOL     OW21921   2.643   8.646   5.896 -0.0538 -0.3063 -0.3323
 7248SOL    HW121922   2.659   8.695   5.810 -1.2071  1.1471  0.2238
 7248SOL    HW221923   2.558   8.593   5.889  0.5290 -1.2419 -0.5009
 7249SOL     OW21924   6.429   5.232   1.161 -0.3509 -0.3819 -0.5795
 7249SOL    HW121925   6.475   5.269   1.242 -0.2534 -0.0093 -0.8047
 7249SOL    HW221926   6.446   5.291   1.083 -1.0046 -0.3776 -0.7228
 7250SOL     OW21927   7.923   6.061   3.006 -0.5234  0.2642  0.3227
 7250SOL    HW121928   7.940   6.031   3.100  0.6423 -0.3564 -0.0789
 7250SOL    HW221929   7.955   6.155   2.995 -1.1924  0.5418  0.6950
 7251SOL     OW21930   6.663   8.509   6.609 -0.0136  0.0400  0.2999
 7251SOL    HW121931   6.759   8.492   6.586  0.1129  0.7548  0.2772
 7251SOL    HW221932   6.619   8.559   6.533  0.2276  1.8303  1.2828
 7252SOL     OW21933   8.657   0.074   3.218 -0.0263  0.4517 -0.1274
 7252SOL    HW121934   8.622  -0.003   3.272 -1.8314  0.0202 -1.7678
 7252SOL    HW221935   8.734   0.043   3.163  0.0929  0.1722  0.1919
 7253SOL     OW21936   5.275   4.721   0.399  0.1189  0.0175 -0.0226
 7253SOL    HW121937   5.180   4.691   0.399  0.1787 -0.2747 -1.5049
 7253SOL    HW221938   5.281   4.813   0.360  0.4100  0.2024  0.4478
 7254SOL     OW21939   1.035   6.488   5.772 -0.3924 -0.4000  0.3189
 7254SOL    HW121940   1.129   6.461   5.752 -0.0018 -0.0997  1.6748
 7254SOL    HW221941   1.000   6.436   5.850 -0.9074  0.3939  0.6335
 7255SOL     OW21942   7.733   3.911   3.094 -0.0833 -0.3322 -0.0921
 7255SOL    HW121943   7.787   3.850   3.151  1.0595 -0.2363 -1.0383
 7255SOL    HW221944   7.649   3.937   3.143  0.6066 -0.6536  1.3078
 7256SOL     OW21945   8.280   1.458   1.931 -0.0946  0.1289  0.0171
 7256SOL    HW121946   8.359   1.423   1.982  0.6334  1.0615 -0.4540
 7256SOL    HW221947   8.211   1.386   1.925  0.1076 -0.2487  1.6647
 7257SOL     OW21948   1.144   0.595   3.372 -0.0536 -0.6930 -0.3610
 7257SOL    HW121949   1.092   0.677   3.348  0.7768 -0.5210 -1.6785
 7257SOL    HW221950   1.150   0.587   3.472  1.2563  1.7842 -0.1449
 7258SOL     OW21951   6.991   0.359   5.578  0.1947  0.2100  0.3802
 7258SOL    HW121952   7.010   0.457   5.573 -0.7427  0.3297 -1.5894
 7258SOL    HW221953   6.893   0.345   5.589  0.2019 -0.5146 -0.4021
 7259SOL     OW21954   4.616   5.968   4.612 -0.3609 -0.7431  0.5283
 7259SOL    HW121955   4.638   5.951   4.516  0.2149  0.1209  0.4945
 7259SOL    HW221956   4.632   5.885   4.665  1.9146 -0.4883  0.3133
 7260SOL     OW21957   0.185   1.886   8.102  0.7922 -0.2061 -0.6199
 7260SOL    HW121958   0.105   1.877   8.043  0.3468  0.0720 -0.0662
 7260SOL    HW221959   0.260   1.832   8.064 -0.1776 -1.9281 -0.2025
 7261SOL     OW21960   3.257   6.995   8.646  0.1119 -0.1867 -0.1347
 7261SOL    HW121961   3.314   6.914   8.662  0.4047  0.2329  1.0075
 7261SOL    HW221962   3.181   6.970   8.586  0.6152 -1.1242 -0.4100
 7262SOL     OW21963   4.530   0.441   6.859  0.3981  0.1923 -0.1796
 7262SOL    HW121964   4.569   0.533   6.871  0.1253  0.2938 -0.0747
 7262SOL    HW221965   4.431   0.446   6.867  0.3935 -0.1335 -0.0539
 7263SOL     OW21966   7.026   7.191   7.118  0.3430  0.2897  0.6018
 7263SOL    HW121967   6.946   7.250   7.123 -1.1340 -1.2616 -2.0439
 7263SOL    HW221968   7.005   7.103   7.162 -0.1307 -0.7228 -1.4914
 7264SOL     OW21969   2.843   4.982   7.116 -0.1988  0.1668  0.2119
 7264SOL    HW121970   2.901   4.901   7.105 -0.3335 -0.0508  1.0451
 7264SOL    HW221971   2.899   5.061   7.138 -0.0798  0.2823 -0.4744
 7265SOL     OW21972   2.258   0.293   3.445 -0.3432 -0.1101 -0.2971
 7265SOL    HW121973   2.357   0.311   3.445 -0.3599 -0.0167 -0.2130
 7265SOL    HW221974   2.212   0.360   3.503 -0.7097  1.2213 -2.0675
 7266SOL     OW21975   7.103   7.623   3.848  0.7474 -0.4639  0.0042
 7266SOL    HW121976   7.107   7.722   3.836 -0.0663 -0.3473  0.6453
 7266SOL    HW221977   7.017   7.589   3.810  2.1164 -1.3006 -2.6240
 7267SOL     OW21978   2.750   4.884   8.731 -0.6934 -0.0735  0.7629
 7267SOL    HW121979   2.767   4.819   8.805 -0.6410 -0.2727  0.5758
 7267SOL    HW221980   2.667   4.936   8.752 -0.8561 -0.3491  0.8112
 7268SOL     OW21981   4.542   1.813   3.590  0.7300  0.2266  0.1524
 7268SOL    HW121982   4.585   1.809   3.680 -0.1248 -0.2054  0.5598
 7268SOL    HW221983   4.533   1.720   3.554 -0.6538  0.2080  0.4827
 7269SOL     OW21984   2.738   4.561   7.789  0.4083  0.0213  0.0013
 7269SOL    HW121985   2.813   4.619   7.820 -0.2152  1.1197 -0.4825
 7269SOL    HW221986   2.680   4.612   7.725  0.4155 -1.4690 -1.2527
 7270SOL     OW21987   5.443   8.379   5.648 -0.4313  0.7085 -0.2755
 7270SOL    HW121988   5.475   8.389   5.742  1.3740 -0.8053 -0.6693
 7270SOL    HW221989   5.500   8.436   5.588 -0.3924  0.2913 -0.6419
 7271SOL     OW21990   5.854   2.287   2.473 -0.3314 -0.1950 -0.4681
 7271SOL    HW121991   5.808   2.227   2.537 -2.4115 -0.2405 -1.9145
 7271SOL    HW221992   5.791   2.357   2.441  1.1497  0.8799 -1.1834
 7272SOL     OW21993   0.942   2.142   8.377  0.1830 -0.4059  0.2992
 7272SOL    HW121994   0.908   2.054   8.411 -2.8980  0.9800  1.1820
 7272SOL    HW221995   0.995   2.187   8.449  0.7628 -0.9954  0.2560
 7273SOL     OW21996   4.725   2.848   4.243 -0.4734  0.5697 -0.0656
 7273SOL    HW121997   4.675   2.934   4.245 -0.4222  0.6295 -1.0159
 7273SOL    HW221998   4.668   2.777   4.201 -0.0206  0.4727 -0.5296
 7274SOL     OW21999   1.055   3.955   4.477 -0.0362  0.0712  0.2165
 7274SOL    HW122000   1.062   3.868   4.427 -2.2354 -0.3061  0.4787
 7274SOL    HW222001   1.045   3.936   4.575  2.2253  0.7524  0.6396
 7275SOL     OW22002   8.780   3.145   7.304 -0.4379 -0.6868 -0.0644
 7275SOL    HW122003   8.690   3.136   7.348 -0.7530 -1.9164 -0.9223
 7275SOL    HW222004   8.804   3.242   7.299 -0.7286 -0.4430  2.0888
 7276SOL     OW22005   2.575   2.425   6.327 -0.3281 -0.1837  0.0379
 7276SOL    HW122006   2.608   2.362   6.397  0.5033  0.1223 -0.0741
 7276SOL    HW222007   2.639   2.426   6.250  0.1717  1.5237  0.4478
 7277SOL     OW22008   4.923   3.013   7.202 -0.3109 -0.0828 -0.2615
 7277SOL    HW122009   4.855   2.987   7.135 -0.9650  2.3231 -0.6152
 7277SOL    HW222010   4.879   3.055   7.281  0.7010  1.0632 -0.2708
 7278SOL     OW22011   1.294   3.916   1.776  0.0054 -0.0577  0.0784
 7278SOL    HW122012   1.364   3.890   1.843 -0.5160  1.2316  1.1725
 7278SOL    HW222013   1.233   3.838   1.761 -0.6454 -0.0203  2.1447
 7279SOL     OW22014   4.854   3.461   4.839  0.0851  0.6272 -0.3325
 7279SOL    HW122015   4.758   3.484   4.825  0.4032  2.0242 -0.3737
 7279SOL    HW222016   4.873   3.457   4.937 -0.1616 -0.3594 -0.3152
 7280SOL     OW22017   6.616   5.671   3.726 -0.2870 -0.4368 -0.0979
 7280SOL    HW122018   6.604   5.655   3.628  1.9605  0.2032 -0.5319
 7280SOL    HW222019   6.584   5.763   3.749 -2.2190 -1.1144  0.1104
 7281SOL     OW22020   2.656   0.197   5.890 -0.2161  0.4107 -0.4623
 7281SOL    HW122021   2.597   0.125   5.928 -1.6241  1.4557 -0.5829
 7281SOL    HW222022   2.610   0.239   5.812 -0.0658  2.3814  0.4554
 7282SOL     OW22023   4.153   0.089   2.387  0.0788  0.1918 -0.1183
 7282SOL    HW122024   4.164  -0.006   2.417 -0.5776  0.6055  1.5126
 7282SOL    HW222025   4.226   0.144   2.427 -0.8603  0.7673  0.8632
 7283SOL     OW22026   7.588   6.440   8.494 -0.0341  0.1698  0.0628
 7283SOL    HW122027   7.509   6.380   8.488  0.9654 -1.2459  0.3881
 7283SOL    HW222028   7.653   6.418   8.421  0.5834  0.4779  0.5051
 7284SOL     OW22029   5.438   1.667   3.408 -0.0283  0.2475  0.2763
 7284SOL    HW122030   5.470   1.658   3.503 -1.1892  1.2829  0.8026
 7284SOL    HW222031   5.501   1.724   3.357  1.4338 -1.5586 -0.0371
 7285SOL     OW22032   1.956   7.897   1.603  0.1875 -0.4591  0.6222
 7285SOL    HW122033   1.857   7.906   1.598  0.0842 -0.7393  1.7957
 7285SOL    HW222034   1.982   7.800   1.593  0.4454 -0.2684 -0.8006
 7286SOL     OW22035   8.406   4.205   7.769 -0.4424 -0.3263 -0.1304
 7286SOL    HW122036   8.421   4.111   7.738  2.0725 -0.0672  0.1147
 7286SOL    HW222037   8.494   4.249   7.785 -1.5626  2.1381 -0.3552
 7287SOL     OW22038   6.675   1.212   6.615  0.5442  0.7695 -0.5198
 7287SOL    HW122039   6.695   1.172   6.525  0.1118 -1.7026  0.3909
 7287SOL    HW222040   6.577   1.227   6.624  0.3827 -0.5322  0.0873
 7288SOL     OW22041   6.626   3.721   5.624  0.4164 -0.1255  0.2639
 7288SOL    HW122042   6.682   3.751   5.547 -2.6800  0.1758 -2.0609
 7288SOL    HW222043   6.656   3.630   5.653  2.4150  0.2492 -0.4467
 7289SOL     OW22044   0.546   4.741   4.103  0.0879  0.1075 -0.0323
 7289SOL    HW122045   0.533   4.643   4.114  1.0503 -0.0731 -0.4561
 7289SOL    HW222046   0.629   4.770   4.151 -0.9390  0.9742  1.3156
 7290SOL     OW22047   3.587   0.217   3.999  0.4231  0.6635  0.2439
 7290SOL    HW122048   3.570   0.211   4.097  1.0532 -1.6161  0.2679
 7290SOL    HW222049   3.507   0.256   3.954  0.0256  1.5035  1.6015
 7291SOL     OW22050   0.437   7.130   3.921  0.3700 -0.3811 -0.6744
 7291SOL    HW122051   0.394   7.202   3.976  2.1387  0.5039 -0.3825
 7291SOL    HW222052   0.469   7.057   3.981  0.8078 -0.2029 -0.6829
 7292SOL     OW22053   1.859   7.135   6.923 -0.0488 -0.2262 -0.6080
 7292SOL    HW122054   1.894   7.147   6.831  1.7186 -0.4925 -0.0080
 7292SOL    HW222055   1.765   7.170   6.928 -0.4091 -0.8166 -2.6367
 7293SOL     OW22056   3.520   4.655   2.222  0.0989 -0.4253  0.3397
 7293SOL    HW122057   3.563   4.627   2.308  0.2196  0.3197  0.5368
 7293SOL    HW222058   3.464   4.581   2.186 -0.2321 -0.6246  1.2438
 7294SOL     OW22059   6.517   3.456   3.636  0.1384  0.7717  0.7048
 7294SOL    HW122060   6.599   3.408   3.670  0.2321  0.8122  0.5363
 7294SOL    HW222061   6.537   3.554   3.629  0.5208  0.6128 -0.6564
 7295SOL     OW22062   0.444   0.608   5.157 -0.0779 -0.3891  0.0128
 7295SOL    HW122063   0.353   0.567   5.150 -1.2234  1.5543  2.1599
 7295SOL    HW222064   0.449   0.690   5.099  0.0911 -0.1159  0.4120
 7296SOL     OW22065   7.064   1.998   4.293  0.3251 -0.3001  0.4547
 7296SOL    HW122066   6.997   1.959   4.356  1.2450 -0.2048  1.5096
 7296SOL    HW222067   7.025   2.079   4.250 -0.4828 -0.6325  0.5387
 7297SOL     OW22068   3.681   1.141   4.870 -0.1925 -0.6503 -0.6276
 7297SOL    HW122069   3.644   1.231   4.892  0.7061 -0.0660 -1.4048
 7297SOL    HW222070   3.621   1.070   4.905 -0.7043  0.2542  0.3573
 7298SOL     OW22071   1.020   4.316   4.303  0.3612  0.7012 -0.7351
 7298SOL    HW122072   0.932   4.328   4.256  1.0086 -0.9868 -2.5430
 7298SOL    HW222073   1.034   4.219   4.323  1.6458  0.9953 -0.1415
 7299SOL     OW22074   0.080   2.572   7.581  0.6093  0.2596  0.2064
 7299SOL    HW122075   0.030   2.657   7.565  1.8397  0.9110 -0.3682
 7299SOL    HW222076   0.016   2.498   7.599 -0.4981  1.2949  0.6751
 7300SOL     OW22077   8.256   7.361   3.228  0.0732 -0.3367 -0.1848
 7300SOL    HW122078   8.280   7.345   3.132  2.3205  0.8557  0.1162
 7300SOL    HW222079   8.313   7.304   3.287  0.6205  0.9035  0.5119
 7301SOL     OW22080   1.309   0.824   8.263 -0.3719 -0.5284  0.0133
 7301SOL    HW122081   1.259   0.802   8.179 -1.5369 -0.3075  0.6300
 7301SOL    HW222082   1.249   0.812   8.342  0.7908 -1.0232  0.8587
 7302SOL     OW22083   6.764   5.562   6.611  0.0524 -0.1583  0.2050
 7302SOL    HW122084   6.848   5.599   6.652  0.3210  0.3952 -0.7996
 7302SOL    HW222085   6.735   5.481   6.661 -0.0813  0.9270  1.9775
 7303SOL     OW22086   3.563   3.075   7.895 -0.3118  0.0573 -0.7979
 7303SOL    HW122087   3.637   3.127   7.938 -1.8643  0.5926  1.4496
 7303SOL    HW222088   3.598   2.987   7.863  1.1386 -0.0938  1.0443
 7304SOL     OW22089   7.990   7.846   3.981  0.0587  0.3629  0.3172
 7304SOL    HW122090   8.055   7.823   4.054  1.8214  2.6784 -0.4002
 7304SOL    HW222091   8.029   7.818   3.893 -0.3060  1.0320 -0.0581
 7305SOL     OW22092   6.937   8.828   7.176  0.0235 -0.1480  0.0802
 7305SOL    HW122093   7.001   8.863   7.244 -0.1707 -0.2404  0.3152
 7305SOL    HW222094   6.948   8.877   7.090  0.3370 -0.0937  0.1515
 7306SOL     OW22095   8.131   5.486   2.522 -0.6503 -0.8516  0.6591
 7306SOL    HW122096   8.203   5.459   2.457 -0.6446 -0.4491  0.4960
 7306SOL    HW222097   8.168   5.483   2.615 -0.4213 -0.6506  0.5763
 7307SOL     OW22098   4.765   4.802   0.396 -0.0684 -0.0694  0.1347
 7307SOL    HW122099   4.760   4.852   0.483 -0.7519 -0.7779  0.5085
 7307SOL    HW222100   4.678   4.755   0.379  0.3983 -0.7458 -0.4412
 7308SOL     OW22101   4.154   3.149   3.851 -0.3336 -0.3102  0.3723
 7308SOL    HW122102   4.069   3.199   3.868  0.4818  1.0664  0.5600
 7308SOL    HW222103   4.232   3.212   3.856  0.7274 -1.5631  0.3811
 7309SOL     OW22104   1.995   6.203   1.212 -0.0495  0.0312 -0.0839
 7309SOL    HW122105   2.037   6.200   1.121 -0.2600 -1.3842 -0.1663
 7309SOL    HW222106   1.902   6.238   1.205 -0.4085 -0.9669 -0.5916
 7310SOL     OW22107   5.670   5.087   3.361  0.0592  0.3996  0.1794
 7310SOL    HW122108   5.573   5.073   3.378  0.1475  0.0774  0.4421
 7310SOL    HW222109   5.701   5.023   3.291  0.4467 -0.7170  1.3228
 7311SOL     OW22110   6.624   7.434   3.846 -0.2144 -0.0144 -0.4229
 7311SOL    HW122111   6.557   7.432   3.772 -0.5822  0.4003 -0.1041
 7311SOL    HW222112   6.583   7.400   3.930 -0.1924  0.7391 -0.0981
 7312SOL     OW22113   4.005   3.595   6.522 -0.2553 -0.1561 -0.1473
 7312SOL    HW122114   3.974   3.686   6.492 -1.9596 -0.9783 -1.0296
 7312SOL    HW222115   4.036   3.543   6.442 -0.1820 -0.6731  0.2166
 7313SOL     OW22116   5.891   8.388   5.295  0.2219 -0.1412  0.8608
 7313SOL    HW122117   5.927   8.343   5.377  0.1094  0.7526  1.4128
 7313SOL    HW222118   5.820   8.453   5.322 -0.7502 -0.7919 -0.0769
 7314SOL     OW22119   0.348   6.714   5.493 -0.4552 -0.4675 -0.0939
 7314SOL    HW122120   0.336   6.793   5.434 -0.4945  0.4170  1.0697
 7314SOL    HW222121   0.435   6.669   5.472  0.1801  0.6412  0.0872
 7315SOL     OW22122   1.098   6.380   2.406 -0.4848  0.1527  0.0876
 7315SOL    HW122123   1.191   6.418   2.399 -0.5881  0.4036  0.0476
 7315SOL    HW222124   1.034   6.443   2.362 -0.4378 -0.9784 -1.6697
 7316SOL     OW22125   4.564   4.480   8.000 -0.0586  0.1644 -0.0021
 7316SOL    HW122126   4.516   4.424   7.932  2.8486 -0.5116 -1.6992
 7316SOL    HW222127   4.548   4.576   7.981  0.3409 -0.0224 -1.4591
 7317SOL     OW22128   1.281   6.840   7.626 -0.0353  0.0160  0.3914
 7317SOL    HW122129   1.275   6.741   7.638  1.9400 -0.0361  1.3778
 7317SOL    HW222130   1.205   6.884   7.674 -0.2687 -0.9644  0.9549
 7318SOL     OW22131   5.643   2.337   4.925  0.3031 -0.4512  0.6006
 7318SOL    HW122132   5.562   2.389   4.953  0.3513 -1.2107  2.2833
 7318SOL    HW222133   5.618   2.272   4.854 -0.0742  0.7973 -0.4425
 7319SOL     OW22134   8.410   7.176   3.692 -0.7345 -0.1350  1.0010
 7319SOL    HW122135   8.468   7.105   3.732  0.9753  1.3029  1.2528
 7319SOL    HW222136   8.320   7.175   3.735  0.1803 -0.3572  3.0293
 7320SOL     OW22137   7.076   6.038   7.500  0.0710 -0.1263 -0.2232
 7320SOL    HW122138   6.998   5.982   7.527  0.1458  0.5691  1.5725
 7320SOL    HW222139   7.048   6.133   7.489  0.8408  0.3921  1.7780
 7321SOL     OW22140   8.823   8.065   5.944 -0.0391  0.6584  0.4767
 7321SOL    HW122141   8.920   8.082   5.965 -0.1859  0.8933  0.9831
 7321SOL    HW222142   8.777   8.152   5.930 -0.4580  0.6183  1.5359
 7322SOL     OW22143   2.671   1.188   0.788 -0.1888  1.2436  0.3881
 7322SOL    HW122144   2.738   1.242   0.738  1.3966  0.7135  1.8300
 7322SOL    HW222145   2.684   1.202   0.886 -2.1651  1.0559  0.7131
 7323SOL     OW22146   7.259   1.851   2.804 -0.3111  0.1198 -0.1553
 7323SOL    HW122147   7.216   1.893   2.884 -0.8336 -2.6058  1.1289
 7323SOL    HW222148   7.358   1.861   2.809 -0.4656  2.1895 -0.5634
 7324SOL     OW22149   7.174   7.945   5.716 -0.5832 -0.0843 -0.4869
 7324SOL    HW122150   7.099   7.923   5.654 -0.6095 -0.6425 -0.2648
 7324SOL    HW222151   7.138   7.960   5.808 -0.4731  0.0841 -0.4720
 7325SOL     OW22152   7.070   2.747   5.955  0.1858  0.0761 -0.3496
 7325SOL    HW122153   7.156   2.699   5.943 -0.2450 -0.9500  0.4775
 7325SOL    HW222154   7.075   2.837   5.910  1.5601 -0.0838 -0.5628
 7326SOL     OW22155   7.171   3.872   8.368  0.3603  0.3792 -0.1000
 7326SOL    HW122156   7.129   3.790   8.330  0.1708  0.7434 -0.6729
 7326SOL    HW222157   7.125   3.896   8.454  0.0981  0.1719 -0.1816
 7327SOL     OW22158   0.510   5.305   5.610  0.2494 -0.4631 -0.1786
 7327SOL    HW122159   0.496   5.209   5.631 -0.6950 -0.3783 -0.3548
 7327SOL    HW222160   0.437   5.337   5.549  1.1348  0.1076 -0.9614
 7328SOL     OW22161   6.823   0.871   6.097 -0.5493  0.1364  0.2906
 7328SOL    HW122162   6.752   0.816   6.051  0.0797 -0.2428 -0.2584
 7328SOL    HW222163   6.797   0.967   6.095 -1.1672 -0.0223  0.3183
 7329SOL     OW22164   5.351   5.156   2.482  0.0510 -0.7022 -0.0668
 7329SOL    HW122165   5.296   5.131   2.561 -1.1009  0.1114 -0.5673
 7329SOL    HW222166   5.406   5.237   2.504 -0.2227 -0.5138 -0.0568
 7330SOL     OW22167   3.319   7.599   0.074  0.1751  0.3333  0.1909
 7330SOL    HW122168   3.394   7.533   0.082  1.2865  1.4941 -0.2637
 7330SOL    HW222169   3.248   7.562   0.014  1.1735 -0.1153 -0.7505
 7331SOL     OW22170   0.308   3.965   7.424 -0.7964  0.5368  0.1377
 7331SOL    HW122171   0.370   4.005   7.491  0.3556  1.2989 -1.3344
 7331SOL    HW222172   0.236   4.031   7.401  0.6684  1.5752 -1.7249
 7332SOL     OW22173   7.453   7.131   3.128 -0.4341  0.3055  0.7276
 7332SOL    HW122174   7.379   7.064   3.126 -1.9155  1.8764  0.0895
 7332SOL    HW222175   7.434   7.199   3.199  0.9626  0.1521  1.2773
 7333SOL     OW22176   4.668   3.304   3.197 -0.1333 -0.3096 -0.6253
 7333SOL    HW122177   4.615   3.387   3.214  0.1510 -0.2273 -0.1010
 7333SOL    HW222178   4.638   3.232   3.260 -0.1113 -0.4847 -0.8133
 7334SOL     OW22179   6.112   3.177   3.637 -0.7868 -0.1104 -0.4875
 7334SOL    HW122180   6.087   3.185   3.541 -0.6933 -0.0334 -0.5055
 7334SOL    HW222181   6.039   3.130   3.687 -0.9154  0.0086 -0.5621
 7335SOL     OW22182   0.796   6.316   4.195  0.6628 -0.4319 -0.0725
 7335SOL    HW122183   0.849   6.298   4.112  0.6251 -0.8414 -0.0101
 7335SOL    HW222184   0.751   6.405   4.187  2.1103  0.3560  0.2793
 7336SOL     OW22185   5.013   1.242   7.259 -0.3356 -0.0512 -0.4059
 7336SOL    HW122186   4.913   1.244   7.257 -0.3377  0.8402 -2.6515
 7336SOL    HW222187   5.044   1.156   7.219 -0.1634 -0.7937  1.2491
 7337SOL     OW22188   1.439   7.729   4.581  0.7077 -0.3522  0.4280
 7337SOL    HW122189   1.417   7.777   4.666  0.3606  0.9551 -0.3812
 7337SOL    HW222190   1.500   7.652   4.601  1.6799  0.7135  1.6926
 7338SOL     OW22191   6.263   8.603   4.480 -0.4263  0.6786 -0.6304
 7338SOL    HW122192   6.264   8.696   4.516 -0.2944  1.2957 -2.1772
 7338SOL    HW222193   6.169   8.574   4.462 -0.3779  1.2535 -1.9329
 7339SOL     OW22194   8.423   7.961   5.338 -0.8274  0.8165 -0.0121
 7339SOL    HW122195   8.493   7.899   5.303  0.2689  1.7271  0.5308
 7339SOL    HW222196   8.353   7.974   5.268 -0.2752  0.1869 -0.7025
 7340SOL     OW22197   2.584   5.890   1.038 -0.0941 -0.4794 -0.3842
 7340SOL    HW122198   2.493   5.854   1.060  0.6440 -1.4251  1.3060
 7340SOL    HW222199   2.636   5.821   0.988 -0.4520  0.2526 -1.8125
 7341SOL     OW22200   1.102   1.291   0.864 -0.5396 -0.3347  0.3651
 7341SOL    HW122201   1.055   1.331   0.942  0.2268 -1.1625  1.2810
 7341SOL    HW222202   1.200   1.287   0.883 -0.2479  0.0844 -0.9341
 7342SOL     OW22203   1.851   0.056   3.030  0.0196 -0.3184 -0.0159
 7342SOL    HW122204   1.758   0.026   3.049 -0.3551  0.4470 -0.6345
 7342SOL    HW222205   1.915   0.000   3.084 -0.8223 -0.3998  0.9320
 7343SOL     OW22206   1.683   8.030   5.796 -0.1637 -0.2779  0.1752
 7343SOL    HW122207   1.689   8.017   5.697 -1.7730 -1.6341  0.2154
 7343SOL    HW222208   1.652   7.945   5.839  1.2798  0.0354  1.9596
 7344SOL     OW22209   2.268   7.776   5.166 -0.1089 -0.2812  0.3012
 7344SOL    HW122210   2.183   7.729   5.140 -0.5610 -0.2068  1.5655
 7344SOL    HW222211   2.309   7.729   5.244  0.6033  0.1538  0.1959
 7345SOL     OW22212   4.101   8.841   3.470 -0.9238 -0.6087  0.1927
 7345SOL    HW122213   4.024   8.807   3.415 -2.5710 -0.4379  2.2567
 7345SOL    HW222214   4.081   8.935   3.500 -0.3091 -0.8650  1.4479
 7346SOL     OW22215   3.876   7.926   0.865 -0.2031  0.0544 -0.1593
 7346SOL    HW122216   3.897   7.857   0.796  0.2819  0.7252 -0.6917
 7346SOL    HW222217   3.783   7.961   0.849  0.1533  0.6961 -0.9085
 7347SOL     OW22218   1.692   3.047   7.727 -0.1232 -0.2179  0.5413
 7347SOL    HW122219   1.675   3.143   7.747  1.5729  0.4279 -0.9335
 7347SOL    HW222220   1.771   3.015   7.779  0.6614 -0.1832 -0.6047
 7348SOL     OW22221   0.476   8.627   6.672 -0.0080 -0.3536  0.2675
 7348SOL    HW122222   0.533   8.658   6.596  0.6258 -1.2425  0.3651
 7348SOL    HW222223   0.533   8.583   6.741 -0.7244 -0.5981  0.7116
 7349SOL     OW22224   8.659   0.716   6.330  0.5060 -0.6090  0.1962
 7349SOL    HW122225   8.720   0.792   6.306 -0.0831 -0.2444 -0.1760
 7349SOL    HW222226   8.564   0.747   6.323  0.2311 -1.6089 -0.7401
 7350SOL     OW22227   8.674   2.850   8.541 -0.1939 -0.2614  0.3372
 7350SOL    HW122228   8.668   2.767   8.485 -1.9021 -0.7683  1.1994
 7350SOL    HW222229   8.591   2.905   8.528 -0.0614  0.2205  1.4249
 7351SOL     OW22230   6.659   2.076   2.001  0.5385  0.9721 -0.4349
 7351SOL    HW122231   6.700   2.066   2.092 -1.0602 -0.4916  0.1883
 7351SOL    HW222232   6.659   1.987   1.955 -1.7539  0.9226 -0.4499
 7352SOL     OW22233   0.242   1.340   2.250 -0.0345 -0.3407 -0.8464
 7352SOL    HW122234   0.267   1.343   2.347  0.1016  0.5799 -0.9016
 7352SOL    HW222235   0.322   1.363   2.194 -0.1424 -0.7498 -1.1705
 7353SOL     OW22236   4.496   1.399   1.237  0.2824 -0.3995 -0.2290
 7353SOL    HW122237   4.469   1.469   1.304 -0.1356 -1.6585  0.9738
 7353SOL    HW222238   4.434   1.402   1.159 -0.9462 -0.6702  0.7048
 7354SOL     OW22239   5.321   3.568   6.055 -0.6464  0.0998 -0.0386
 7354SOL    HW122240   5.258   3.529   5.988 -1.7260  1.0524  0.3957
 7354SOL    HW222241   5.292   3.661   6.078  0.9645  0.5985  0.1215
 7355SOL     OW22242   4.430   3.586   5.917  0.0532 -0.1995  0.5839
 7355SOL    HW122243   4.356   3.519   5.920  0.5024 -0.7986 -0.9839
 7355SOL    HW222244   4.427   3.635   5.830  1.6350 -0.4101  0.3941
 7356SOL     OW22245   1.177   6.947   6.389 -0.5841  0.2197  0.0162
 7356SOL    HW122246   1.248   6.883   6.359 -1.2363 -0.5129 -0.0060
 7356SOL    HW222247   1.137   6.914   6.475 -4.1895 -2.0966 -2.2541
 7357SOL     OW22248   5.467   5.386   8.844  0.4760  0.3526  0.1456
 7357SOL    HW122249   5.517   5.432   8.770  1.3066 -0.0467  0.4381
 7357SOL    HW222250   5.474   5.287   8.832  1.5455  0.2599  1.3399
 7358SOL     OW22251   8.102   0.254   4.035  0.5905 -0.0905 -0.6974
 7358SOL    HW122252   8.184   0.299   4.071  0.0361  1.3413 -1.1340
 7358SOL    HW222253   8.098   0.160   4.068  1.8276  0.1530  0.2254
 7359SOL     OW22254   7.465   7.039   1.413  0.1291 -0.2797 -0.3979
 7359SOL    HW122255   7.425   6.986   1.339  1.3234 -1.7487 -0.0514
 7359SOL    HW222256   7.396   7.058   1.483 -1.0213  1.1612 -1.8389
 7360SOL     OW22257   7.800   5.517   1.419 -0.3310  0.0989 -0.6686
 7360SOL    HW122258   7.776   5.614   1.416 -0.2999  0.0899 -1.3364
 7360SOL    HW222259   7.848   5.497   1.505 -1.5314  0.3878  0.1029
 7361SOL     OW22260   8.771   7.761   4.634  0.3951 -0.3182 -0.0603
 7361SOL    HW122261   8.783   7.860   4.642  0.5933 -0.2982 -0.5373
 7361SOL    HW222262   8.856   7.715   4.661 -0.3373 -0.4757  2.1744
 7362SOL     OW22263   8.771   3.780   2.356 -0.3287 -0.4955 -0.4840
 7362SOL    HW122264   8.686   3.778   2.304 -0.6675  0.9945 -0.0330
 7362SOL    HW222265   8.793   3.874   2.380 -0.0069 -1.0867  1.7795
 7363SOL     OW22266   0.881   6.119   4.770 -0.0368  0.0415  0.5877
 7363SOL    HW122267   0.884   6.145   4.674 -0.7202  1.3030  0.8910
 7363SOL    HW222268   0.955   6.054   4.789  1.4348  1.3976 -0.3049
 7364SOL     OW22269   0.472   4.848   1.957  0.4160 -0.3583  0.2852
 7364SOL    HW122270   0.419   4.916   1.908  0.0953  0.2854  1.4816
 7364SOL    HW222271   0.455   4.757   1.918 -2.4422 -0.3481  1.2768
 7365SOL     OW22272   2.261   0.008   3.442  0.0638 -0.0368  0.2009
 7365SOL    HW122273   2.232   0.104   3.451 -0.6989 -0.3044  0.7354
 7365SOL    HW222274   2.354  -0.002   3.475 -0.0946  0.4050  0.8051
 7366SOL     OW22275   0.565   7.227   8.410  0.0778 -0.2696  0.5487
 7366SOL    HW122276   0.571   7.129   8.430 -0.6501 -0.2949  0.6921
 7366SOL    HW222277   0.576   7.241   8.311 -0.2167 -0.5386  0.4763
 7367SOL     OW22278   1.978   5.535   8.251  0.0621 -0.1309  0.4680
 7367SOL    HW122279   1.966   5.438   8.271 -0.6579 -0.0867  0.2841
 7367SOL    HW222280   2.036   5.546   8.171 -0.3199 -0.4334  0.1456
 7368SOL     OW22281   6.220   8.727   1.106 -0.0401  0.3700  0.4101
 7368SOL    HW122282   6.214   8.822   1.075 -0.7366  1.3511  3.2790
 7368SOL    HW222283   6.312   8.710   1.141 -0.5763  0.7981  2.1208
 7369SOL     OW22284   5.577   2.956   4.934  0.1403 -0.4078  0.3928
 7369SOL    HW122285   5.602   3.016   4.858  0.6008 -0.2795  0.6382
 7369SOL    HW222286   5.479   2.964   4.952  0.3319  0.9069  0.9676
 7370SOL     OW22287   5.810   6.641   2.692  0.6035  0.3626 -0.2569
 7370SOL    HW122288   5.783   6.734   2.668 -1.8334  0.0618  0.9372
 7370SOL    HW222289   5.895   6.642   2.744 -0.8622  2.3121  2.3358
 7371SOL     OW22290   1.130   3.417   3.403 -0.3129  0.3931  0.8400
 7371SOL    HW122291   1.216   3.466   3.416 -0.1702  0.1096  0.9809
 7371SOL    HW222292   1.108   3.365   3.486  0.4848 -1.2319  0.0923
 7372SOL     OW22293   7.482   2.189   3.118  0.2156  0.7400  0.0052
 7372SOL    HW122294   7.548   2.120   3.089  0.7004  0.8608  0.8082
 7372SOL    HW222295   7.412   2.200   3.046 -1.2268 -2.2595  0.7710
 7373SOL     OW22296   8.838   6.894   1.103 -0.2116 -0.2189 -0.1316
 7373SOL    HW122297   8.837   6.795   1.117 -0.2196 -0.2336 -0.2296
 7373SOL    HW222298   8.752   6.932   1.136  0.2447 -0.0891  0.9427
 7374SOL     OW22299   5.302   7.814   2.467 -0.3269  0.2427 -0.5818
 7374SOL    HW122300   5.280   7.826   2.370  0.8546 -0.1183 -0.9137
 7374SOL    HW222301   5.372   7.881   2.494  0.0850 -0.3170 -0.2431
 7375SOL     OW22302   0.032   6.560   2.066 -0.4695 -0.3583  0.5830
 7375SOL    HW122303  -0.052   6.613   2.072  0.2402  0.8073  0.5772
 7375SOL    HW222304   0.044   6.527   1.972 -0.4457  0.2799  0.3590
 7376SOL     OW22305   7.449   0.397   7.091  0.1061 -0.0802 -0.0655
 7376SOL    HW122306   7.479   0.492   7.100  0.0191  0.0407 -1.0010
 7376SOL    HW222307   7.352   0.391   7.116  0.6721 -0.3624  2.3314
 7377SOL     OW22308   7.951   0.660   5.392  0.4329 -0.0374  0.0891
 7377SOL    HW122309   8.028   0.613   5.435  1.4838  1.6458  0.1469
 7377SOL    HW222310   7.955   0.757   5.414 -0.3722  0.4748 -1.8459
 7378SOL     OW22311   0.718   6.246   4.934  0.0058  0.2190  0.4529
 7378SOL    HW122312   0.632   6.196   4.946  0.8544 -1.0460  1.6519
 7378SOL    HW222313   0.784   6.188   4.887  1.0894  0.0391  2.0889
 7379SOL     OW22314   2.542   7.952   5.442 -0.0250  0.1403 -0.5091
 7379SOL    HW122315   2.448   7.979   5.418  0.2883  1.1954 -0.6175
 7379SOL    HW222316   2.557   7.970   5.539  0.3268  0.7994 -0.6792
 7380SOL     OW22317   4.025   7.624   5.187  0.4806 -0.3385 -0.8802
 7380SOL    HW122318   4.055   7.529   5.180  0.9671 -0.2195 -0.4284
 7380SOL    HW222319   3.929   7.630   5.159  0.0304 -1.1968  0.3781
 7381SOL     OW22320   1.527   3.434   4.815  0.4575  0.2094  0.2534
 7381SOL    HW122321   1.490   3.502   4.878 -1.4889  0.1028 -0.6927
 7381SOL    HW222322   1.550   3.478   4.728  1.1572  0.0050  0.3309
 7382SOL     OW22323   2.518   6.443   8.495 -0.6598  0.1790  0.5478
 7382SOL    HW122324   2.609   6.469   8.461 -1.2735  2.4838  0.5289
 7382SOL    HW222325   2.507   6.476   8.589 -1.9549  1.1477  0.0831
 7383SOL     OW22326   7.455   5.203   7.770  0.6231  0.1143 -0.1142
 7383SOL    HW122327   7.430   5.296   7.798 -1.8215 -0.2576 -0.7822
 7383SOL    HW222328   7.404   5.137   7.825 -0.8784 -0.7088 -2.3479
 7384SOL     OW22329   4.548   2.944   3.014  0.3178  0.1634  0.3485
 7384SOL    HW122330   4.492   3.027   3.016 -1.8947 -1.1731 -1.6985
 7384SOL    HW222331   4.550   2.903   3.105 -0.2287  1.3667  0.9227
 7385SOL     OW22332   1.857   3.288   7.954 -0.4743 -0.3326  0.3771
 7385SOL    HW122333   1.840   3.283   8.052  1.5815 -1.4830  0.7414
 7385SOL    HW222334   1.901   3.204   7.924  0.5511  0.7099 -1.1818
 7386SOL     OW22335   2.357   2.883   1.022 -0.0761  0.4770 -0.5820
 7386SOL    HW122336   2.309   2.872   1.108 -0.5130  0.4111 -0.8296
 7386SOL    HW222337   2.296   2.857   0.946  0.1767  0.8745 -0.9286
 7387SOL     OW22338   6.303   6.906   5.019 -0.0820 -0.0698  0.1066
 7387SOL    HW122339   6.317   6.974   4.946 -0.5290  0.2609  0.3213
 7387SOL    HW222340   6.206   6.903   5.042  0.0540 -0.1877  0.6758
 7388SOL     OW22341   5.062   7.683   7.916  0.1791 -0.2904  0.3533
 7388SOL    HW122342   5.144   7.713   7.866 -1.4913  0.5744 -2.0790
 7388SOL    HW222343   5.036   7.754   7.981  0.7916 -0.1279  0.4314
 7389SOL     OW22344   1.899   0.982   1.344  0.1181  0.6734 -0.0231
 7389SOL    HW122345   1.883   1.027   1.257  1.1325  0.1086 -0.5260
 7389SOL    HW222346   1.991   1.006   1.377 -0.2602  0.9003  0.9081
 7390SOL     OW22347   7.799   7.699   7.658 -0.2168 -0.1316 -0.3075
 7390SOL    HW122348   7.754   7.787   7.643 -0.7357 -0.2185  0.6624
 7390SOL    HW222349   7.898   7.710   7.652 -0.3078  0.3108 -1.1971
 7391SOL     OW22350   1.471   6.983   2.818  0.7101 -1.1103 -0.0594
 7391SOL    HW122351   1.570   6.980   2.834  0.7798 -2.8552 -0.5672
 7391SOL    HW222352   1.423   6.968   2.905  0.9157 -1.3941  0.0068
 7392SOL     OW22353   5.427   1.906   5.358  0.6000 -0.4544  0.0325
 7392SOL    HW122354   5.519   1.943   5.345 -0.1945  1.2593 -1.0262
 7392SOL    HW222355   5.366   1.978   5.391 -0.2854 -1.6796  1.1843
 7393SOL     OW22356   4.948   3.379   5.568  0.6585  0.0804 -0.3188
 7393SOL    HW122357   5.026   3.356   5.627  1.0559  1.2432 -0.3802
 7393SOL    HW222358   4.958   3.333   5.480  0.7397 -0.5908  0.0283
 7394SOL     OW22359   5.389   5.211   5.134  0.2661 -0.2108 -0.0363
 7394SOL    HW122360   5.325   5.180   5.204  0.9572  0.4463  0.9126
 7394SOL    HW222361   5.445   5.285   5.170  2.1221 -1.2874 -0.5634
 7395SOL     OW22362   2.767   0.740   4.897 -0.2248  0.7923  0.0292
 7395SOL    HW122363   2.817   0.666   4.942  0.1070  0.4120 -0.9379
 7395SOL    HW222364   2.711   0.702   4.824 -0.2950  1.4656 -0.2671
 7396SOL     OW22365   1.376   3.960   0.778 -0.0523  0.1182 -0.0135
 7396SOL    HW122366   1.307   3.963   0.851 -0.0849  1.8735 -0.0560
 7396SOL    HW222367   1.337   3.996   0.694  0.8371  0.9679 -0.0881
 7397SOL     OW22368   6.800   2.131   5.699 -0.3915  0.6214 -0.3856
 7397SOL    HW122369   6.859   2.059   5.737  0.2121  1.1509 -0.2997
 7397SOL    HW222370   6.848   2.219   5.704  0.2989  0.5507 -3.6415
 7398SOL     OW22371   6.714   7.058   3.685 -0.6476 -0.0466 -0.1524
 7398SOL    HW122372   6.690   7.076   3.781 -0.5568  0.5920 -0.2425
 7398SOL    HW222373   6.809   7.030   3.679 -0.9409 -1.1295  0.0500
 7399SOL     OW22374   0.748   2.098   6.933  0.1453  0.1777  0.4143
 7399SOL    HW122375   0.819   2.061   6.993  0.9112  0.0162 -0.5738
 7399SOL    HW222376   0.697   2.023   6.891  0.9627  0.2278 -0.7156
 7400SOL     OW22377   0.720   6.665   1.010 -0.2119 -0.4095  0.0629
 7400SOL    HW122378   0.712   6.722   1.091 -1.3148 -0.2061 -0.1670
 7400SOL    HW222379   0.634   6.616   0.995 -0.5045  0.5565 -1.7063
 7401SOL     OW22380   4.575   6.724   0.770 -0.2802  0.2361 -0.1286
 7401SOL    HW122381   4.580   6.651   0.838 -1.5485  0.9190  0.7365
 7401SOL    HW222382   4.554   6.811   0.816 -0.7928  0.7834 -1.3547
 7402SOL     OW22383   2.539   3.319   0.364  0.3114 -0.3723  0.1133
 7402SOL    HW122384   2.563   3.242   0.422 -2.8706 -0.7232  1.1369
 7402SOL    HW222385   2.505   3.395   0.420  1.8690  1.2649 -1.0005
 7403SOL     OW22386   3.857   8.742   4.677 -0.5510 -0.0552 -0.4652
 7403SOL    HW122387   3.865   8.748   4.776  0.9730 -0.8284 -0.5070
 7403SOL    HW222388   3.832   8.649   4.651  0.5540 -0.2590 -0.8510
 7404SOL     OW22389   4.343   5.945   2.697  0.2069  0.3409  0.0777
 7404SOL    HW122390   4.408   5.955   2.773  0.9671  0.1375 -0.5345
 7404SOL    HW222391   4.391   5.914   2.616 -0.5352  0.9301 -0.6043
 7405SOL     OW22392   8.497   5.059   7.877 -0.0597 -0.5865  0.4761
 7405SOL    HW122393   8.553   5.001   7.937 -1.0304 -1.9269  0.1320
 7405SOL    HW222394   8.539   5.063   7.786  0.0432 -0.7043  0.5177
 7406SOL     OW22395   5.106   6.794   6.606 -0.1924 -0.2606  0.8580
 7406SOL    HW122396   5.059   6.755   6.685 -1.1372  0.3729  0.6274
 7406SOL    HW222397   5.195   6.830   6.634  0.4735 -2.0870  1.1696
 7407SOL     OW22398   6.583   2.743   6.464  0.1471 -0.7569 -0.8193
 7407SOL    HW122399   6.573   2.646   6.442 -1.0334 -1.3094  1.7283
 7407SOL    HW222400   6.661   2.755   6.526  0.2057 -0.0974 -1.0119
 7408SOL     OW22401   1.086   6.203   3.130 -0.0574 -0.1370 -0.0840
 7408SOL    HW122402   1.019   6.135   3.100  0.8168 -0.8905 -0.3637
 7408SOL    HW222403   1.043   6.266   3.194 -0.6947 -1.3988  0.7609
 7409SOL     OW22404   8.036   6.673   8.292  0.0503  0.0203 -0.1701
 7409SOL    HW122405   7.945   6.709   8.273  0.1536 -0.8862 -2.8390
 7409SOL    HW222406   8.031   6.605   8.364 -0.9266  1.7128  1.4541
 7410SOL     OW22407   3.306   2.597   4.230 -0.2705 -0.0110  0.2635
 7410SOL    HW122408   3.288   2.609   4.132 -0.3264  1.6268  0.4403
 7410SOL    HW222409   3.405   2.590   4.245 -0.1206  1.5389  0.2149
 7411SOL     OW22410   4.190   1.030   4.361  0.3430 -0.3605 -0.5240
 7411SOL    HW122411   4.161   1.066   4.450  0.3336  1.2466 -1.1384
 7411SOL    HW222412   4.182   0.930   4.361 -3.4395 -0.1873 -0.0172
 7412SOL     OW22413   2.214   3.931   5.700 -0.0189 -0.1809 -0.0204
 7412SOL    HW122414   2.145   3.873   5.656 -0.5054 -0.9283  1.6211
 7412SOL    HW222415   2.174   4.019   5.724 -0.3209 -0.4773  0.5969
 7413SOL     OW22416   0.883   7.764   4.127  0.4483  0.5647  0.5570
 7413SOL    HW122417   0.983   7.767   4.133  0.3921  1.8370  1.3291
 7413SOL    HW222418   0.846   7.714   4.206  0.4572  0.2935  0.3920
 7414SOL     OW22419   7.792   2.921   3.558 -0.2131 -0.0892  0.3332
 7414SOL    HW122420   7.791   2.825   3.530 -0.7720 -0.5608  1.8544
 7414SOL    HW222421   7.741   2.976   3.491 -1.1974 -1.1017  0.2217
 7415SOL     OW22422   8.578   0.382   7.950  0.0700 -0.8380 -0.0148
 7415SOL    HW122423   8.650   0.333   7.902  0.6494 -1.4557  1.4159
 7415SOL    HW222424   8.612   0.471   7.980  0.3705 -1.2658  0.9513
 7416SOL     OW22425   6.713   8.583   4.791  0.1160  0.7239 -0.2134
 7416SOL    HW122426   6.786   8.651   4.794 -0.0120  0.9520 -1.6475
 7416SOL    HW222427   6.691   8.562   4.696 -0.9980 -0.0855  0.2055
 7417SOL     OW22428   3.935   4.319   1.566 -0.3236 -0.0361 -0.0384
 7417SOL    HW122429   3.842   4.352   1.552 -0.5021  0.4145  1.9116
 7417SOL    HW222430   3.935   4.246   1.634  0.9412  1.4767  1.6756
 7418SOL     OW22431   5.728   1.762   5.445  0.1048 -0.3179 -0.8089
 7418SOL    HW122432   5.741   1.809   5.358  2.6558 -1.2011 -0.9989
 7418SOL    HW222433   5.731   1.828   5.520  2.6561  0.0190 -1.1304
 7419SOL     OW22434   6.632   0.321   3.857 -0.2221  0.3550  0.1131
 7419SOL    HW122435   6.664   0.406   3.901  0.4222  0.0563  0.2401
 7419SOL    HW222436   6.694   0.298   3.781  0.6541 -0.9377  1.1769
 7420SOL     OW22437   2.739   0.756   6.063  0.3177  0.2855  0.3717
 7420SOL    HW122438   2.749   0.658   6.083  0.1349  0.0564 -0.5967
 7420SOL    HW222439   2.825   0.803   6.083 -0.0956  0.2476  2.4746
 7421SOL     OW22440   7.747   7.569   0.615 -0.1213 -0.2015 -0.4297
 7421SOL    HW122441   7.800   7.601   0.694 -0.2627 -0.2282 -0.3239
 7421SOL    HW222442   7.809   7.528   0.548  0.1414  0.8290 -0.8349
 7422SOL     OW22443   0.283   1.414   4.374  0.4084 -0.5650  0.1510
 7422SOL    HW122444   0.302   1.467   4.457 -0.9603 -0.7473  0.6075
 7422SOL    HW222445   0.191   1.434   4.343  0.9742 -0.3541 -1.4681
 7423SOL     OW22446   8.593   2.645   1.270 -0.0628  0.0253  0.4301
 7423SOL    HW122447   8.680   2.662   1.318  0.1515 -2.7449  1.2308
 7423SOL    HW222448   8.567   2.550   1.284 -3.0842  0.6920 -0.1155
 7424SOL     OW22449   8.234   4.714   7.853 -0.2188 -0.1190  0.1025
 7424SOL    HW122450   8.212   4.657   7.932 -0.6498 -1.0645 -0.6761
 7424SOL    HW222451   8.273   4.657   7.780 -0.3232  0.6424 -0.5735
 7425SOL     OW22452   8.120   2.791   7.979 -0.2402 -0.4907 -0.2150
 7425SOL    HW122453   8.094   2.806   8.075  0.9959 -1.0819  0.2320
 7425SOL    HW222454   8.124   2.879   7.932  2.4845  0.2598  1.2006
 7426SOL     OW22455   8.325   2.716   6.136 -0.1518  0.1509  0.4915
 7426SOL    HW122456   8.364   2.682   6.221  1.9350 -0.7120 -0.7301
 7426SOL    HW222457   8.362   2.663   6.059 -1.7260  1.1020 -0.9834
 7427SOL     OW22458   6.849   3.110   6.584  0.4040  0.1447 -0.3356
 7427SOL    HW122459   6.831   3.135   6.679  1.7436  1.4678 -0.4059
 7427SOL    HW222460   6.822   3.185   6.524 -1.0041 -0.9117 -1.0932
 7428SOL     OW22461   2.887   0.717   4.137 -0.0008  0.3804  0.2527
 7428SOL    HW122462   2.818   0.746   4.071 -0.5037 -2.6105 -0.6712
 7428SOL    HW222463   2.853   0.735   4.230  0.2985  3.7044 -0.1723
 7429SOL     OW22464   3.983   1.658   6.699  0.1701  0.3186  0.0810
 7429SOL    HW122465   4.050   1.633   6.769 -0.2747 -0.7725  0.1252
 7429SOL    HW222466   3.900   1.693   6.742  0.4179  0.9550  0.0491
 7430SOL     OW22467   1.833   0.751   1.466 -0.3762 -0.0703 -0.2840
 7430SOL    HW122468   1.860   0.833   1.416  0.0987  0.1151  0.2684
 7430SOL    HW222469   1.778   0.776   1.545 -2.1766 -0.4394 -1.3466
 7431SOL     OW22470   4.257   3.533   2.768 -0.1550  0.1774  0.7620
 7431SOL    HW122471   4.356   3.544   2.772 -0.0352  0.6195 -1.6548
 7431SOL    HW222472   4.233   3.437   2.786  0.6855  0.0810  1.4250
 7432SOL     OW22473   8.324   8.215   8.223 -0.4286  0.0556 -0.0001
 7432SOL    HW122474   8.243   8.238   8.169 -1.7467 -0.1773  1.7868
 7432SOL    HW222475   8.366   8.299   8.257 -0.1578  0.1609 -0.5931
 7433SOL     OW22476   6.128   2.758   7.933  0.5018 -0.2984  0.5658
 7433SOL    HW122477   6.122   2.659   7.937 -1.4965 -0.1994  0.8173
 7433SOL    HW222478   6.064   2.799   7.998 -0.3064  1.1388 -1.0453
 7434SOL     OW22479   0.736   7.525   7.101 -0.3412  0.1176  0.4765
 7434SOL    HW122480   0.818   7.519   7.044 -1.8004  1.0618 -1.8975
 7434SOL    HW222481   0.756   7.490   7.193  2.9131  1.0781  0.2675
 7435SOL     OW22482   0.855   2.727   6.206 -0.1231 -0.0086 -0.3647
 7435SOL    HW122483   0.775   2.669   6.223  0.1927  0.1064  1.7929
 7435SOL    HW222484   0.836   2.788   6.129 -1.3852 -1.2791 -1.1040
 7436SOL     OW22485   2.795   0.935   0.705 -0.0693 -0.2647  0.0586
 7436SOL    HW122486   2.824   0.965   0.796  0.8005  1.4811 -0.7574
 7436SOL    HW222487   2.874   0.904   0.653 -0.4482 -0.5053 -0.3842
 7437SOL     OW22488   2.285   8.700   1.065  0.2496 -0.3941 -0.2429
 7437SOL    HW122489   2.272   8.602   1.078 -0.0832 -0.4651 -1.1162
 7437SOL    HW222490   2.378   8.724   1.093  0.5085 -1.0444 -0.5236
 7438SOL     OW22491   4.657   6.112   7.046  0.5295 -0.4239 -0.3616
 7438SOL    HW122492   4.725   6.052   7.003  1.2835 -1.1178  1.6834
 7438SOL    HW222493   4.567   6.092   7.008  0.9323 -2.0802 -0.5405
 7439SOL     OW22494   8.431   2.119   5.923  0.1017 -0.1377 -0.0358
 7439SOL    HW122495   8.372   2.069   5.860 -0.3716  0.2025  0.1381
 7439SOL    HW222496   8.382   2.198   5.960  0.5127 -0.1084  0.4543
 7440SOL     OW22497   2.080   4.523   5.218 -0.1179 -0.0862 -0.1774
 7440SOL    HW122498   2.014   4.594   5.192  2.0145  1.7083 -0.9918
 7440SOL    HW222499   2.161   4.530   5.160  1.2458 -1.5451  1.4380
 7441SOL     OW22500   6.704   4.415   0.746  0.2519  0.1546  0.3733
 7441SOL    HW122501   6.775   4.344   0.739  1.2668  1.0320  1.4155
 7441SOL    HW222502   6.747   4.504   0.761 -1.0754  0.7255  0.9408
 7442SOL     OW22503   4.595   7.092   4.470 -0.1206  0.4280 -0.2735
 7442SOL    HW122504   4.582   7.186   4.499 -0.3711  1.0464 -2.2208
 7442SOL    HW222505   4.677   7.086   4.412 -0.0545 -0.5813 -0.0963
 7443SOL     OW22506   5.050   4.442   2.653  0.0219 -0.1523 -0.1114
 7443SOL    HW122507   5.070   4.347   2.627 -0.9982 -0.4197  0.0447
 7443SOL    HW222508   5.033   4.446   2.752 -0.4353  0.1061 -0.2000
 7444SOL     OW22509   0.586   8.086   7.412  0.8597 -0.1235  0.2114
 7444SOL    HW122510   0.602   8.022   7.337  1.1221 -0.9249  0.9365
 7444SOL    HW222511   0.663   8.085   7.475  1.2864  1.5959 -0.2267
 7445SOL     OW22512   8.051   7.675   5.747 -0.2457 -0.2259  0.2629
 7445SOL    HW122513   7.958   7.640   5.738 -0.9175  0.9658  2.0434
 7445SOL    HW222514   8.096   7.672   5.658 -1.2650 -2.7049 -0.2439
 7446SOL     OW22515   3.129   8.100   2.209  0.0198  0.6850 -0.4629
 7446SOL    HW122516   3.184   8.016   2.208  0.2907  0.8191 -2.7130
 7446SOL    HW222517   3.189   8.179   2.215 -0.0134  0.7798 -1.2563
 7447SOL     OW22518   5.125   7.366   2.295 -0.3185  0.0795 -0.0341
 7447SOL    HW122519   5.151   7.344   2.389  0.6249 -0.1764 -0.3432
 7447SOL    HW222520   5.122   7.282   2.240  1.5560  0.4591 -0.8000
 7448SOL     OW22521   7.062   2.988   0.461  0.3516  0.3674 -0.2425
 7448SOL    HW122522   6.981   2.995   0.403  0.0259  0.1007  0.1791
 7448SOL    HW222523   7.090   3.079   0.490  0.2343  0.4621 -0.4241
 7449SOL     OW22524   3.110   1.397   4.020  0.2836  0.1359 -0.4960
 7449SOL    HW122525   3.047   1.326   4.051 -0.8952  0.8068 -1.2697
 7449SOL    HW222526   3.093   1.482   4.070  3.5619 -0.7151  2.5046
 7450SOL     OW22527   0.903   6.492   0.135  0.3410  0.3678 -0.1853
 7450SOL    HW122528   0.888   6.591   0.137  0.4768  0.4124 -1.0035
 7450SOL    HW222529   0.984   6.472   0.079 -0.6387 -0.3123 -1.4155
 7451SOL     OW22530   3.597   2.640   6.127  0.3819  0.1785 -0.5543
 7451SOL    HW122531   3.569   2.680   6.214  1.6080 -2.2510  1.0406
 7451SOL    HW222532   3.521   2.647   6.061 -1.8724 -1.0038  1.7566
 7452SOL     OW22533   0.043   6.755   7.255  0.1920 -0.1026  0.1307
 7452SOL    HW122534   0.012   6.825   7.192 -2.1716  0.0795  1.3868
 7452SOL    HW222535   0.004   6.772   7.346  1.3285 -1.8289  1.0044
 7453SOL     OW22536   3.174   5.886   4.412  0.0038 -0.0331  0.2192
 7453SOL    HW122537   3.106   5.846   4.350  1.1949 -0.8841 -0.5951
 7453SOL    HW222538   3.239   5.941   4.359  0.5330 -0.0546  0.8358
 7454SOL     OW22539   4.592   6.434   1.967 -0.0369 -0.1621  0.3822
 7454SOL    HW122540   4.502   6.397   1.944  1.4202 -2.5687 -2.0686
 7454SOL    HW222541   4.583   6.529   1.993 -3.1807  0.0003 -0.8540
 7455SOL     OW22542   0.352   8.770   2.854  0.2285 -0.1947  0.2585
 7455SOL    HW122543   0.255   8.744   2.847 -0.1512  1.5435 -2.1998
 7455SOL    HW222544   0.395   8.762   2.764  1.9195  0.7141  0.9496
 7456SOL     OW22545   3.692   0.000   3.190 -0.4342 -0.5019 -0.1069
 7456SOL    HW122546   3.645   0.020   3.276 -0.4875  2.5465 -0.7244
 7456SOL    HW222547   3.631  -0.050   3.129 -1.8825  0.8176  0.2013
 7457SOL     OW22548   0.763   5.084   3.783  0.8486  0.3684  0.0515
 7457SOL    HW122549   0.843   5.047   3.831  1.8639  0.9310 -1.1367
 7457SOL    HW222550   0.735   5.022   3.711 -0.1726 -0.0958  0.8202
 7458SOL     OW22551   2.642   5.762   1.921  0.1101  0.0829 -0.0986
 7458SOL    HW122552   2.730   5.755   1.874 -0.1974  3.5560 -1.4175
 7458SOL    HW222553   2.656   5.798   2.014  0.2936 -2.7023  1.0580
 7459SOL     OW22554   2.262   3.446   5.726 -0.2608 -0.2739  0.3833
 7459SOL    HW122555   2.340   3.507   5.736  0.3008 -1.0149  0.5518
 7459SOL    HW222556   2.177   3.499   5.737  0.2030  0.5741 -0.0569
 7460SOL     OW22557   2.811   0.281   3.874 -0.2749 -0.0441  0.1580
 7460SOL    HW122558   2.735   0.261   3.812 -1.5364  0.9066  1.3356
 7460SOL    HW222559   2.804   0.223   3.955  1.3919 -1.3117 -0.5357
 7461SOL     OW22560   7.289   1.270   6.609 -0.1575 -0.1057 -0.0171
 7461SOL    HW122561   7.192   1.294   6.615 -0.2942 -0.2398 -1.4228
 7461SOL    HW222562   7.322   1.285   6.516  0.7662 -1.5550  0.0425
 7462SOL     OW22563   6.004   5.447   5.027 -0.4478 -0.6779 -0.0333
 7462SOL    HW122564   6.021   5.523   5.090  1.4996 -0.5700 -0.6196
 7462SOL    HW222565   5.972   5.482   4.940 -2.9926 -0.8181  0.7457
 7463SOL     OW22566   4.166   4.002   4.837 -0.2612 -0.0257 -0.5602
 7463SOL    HW122567   4.080   4.052   4.840 -0.4261 -0.3125 -0.4491
 7463SOL    HW222568   4.214   4.022   4.752  1.4208  3.2083  0.9566
 7464SOL     OW22569   4.350   3.162   5.308  0.1667 -0.5357  0.3079
 7464SOL    HW122570   4.373   3.088   5.245  2.0963  1.7732 -1.9116
 7464SOL    HW222571   4.385   3.140   5.399 -1.2087 -3.2182  0.2936
 7465SOL     OW22572   0.609   0.943   8.699  0.3317  0.2089 -0.2594
 7465SOL    HW122573   0.618   0.851   8.660 -0.7009  0.1302 -0.3376
 7465SOL    HW222574   0.512   0.966   8.707  0.5932  1.7105 -1.1908
 7466SOL     OW22575   3.126   4.016   5.488  0.3821 -0.4450  0.6756
 7466SOL    HW122576   3.149   4.111   5.507 -1.6118 -0.1378  1.8652
 7466SOL    HW222577   3.131   3.963   5.573 -2.6568 -0.4103  0.9814
 7467SOL     OW22578   7.076   7.216   0.394  0.5882 -0.2967 -0.1620
 7467SOL    HW122579   7.004   7.255   0.336  1.2241 -0.3623 -1.0132
 7467SOL    HW222580   7.064   7.117   0.401 -0.4435 -0.1031  1.1823
 7468SOL     OW22581   7.600   3.863   4.478 -0.0151 -0.3189 -0.3295
 7468SOL    HW122582   7.550   3.947   4.456 -1.2265 -0.5780  1.2722
 7468SOL    HW222583   7.589   3.798   4.402 -1.8788 -0.2303 -0.1858
 7469SOL     OW22584   4.842   2.955   0.700  0.3558 -0.0332  0.6684
 7469SOL    HW122585   4.881   3.036   0.657 -2.6013  0.8663 -0.5799
 7469SOL    HW222586   4.817   2.977   0.795 -1.0860  0.8555  0.1315
 7470SOL     OW22587   0.046   1.033   1.362 -0.0516 -0.2362 -0.1697
 7470SOL    HW122588   0.100   0.972   1.419 -0.4350  0.1817  0.6526
 7470SOL    HW222589   0.009   1.107   1.418 -1.1563 -0.3008 -0.7875
 7471SOL     OW22590   1.115   4.927   1.857 -0.1469  0.7481  0.0318
 7471SOL    HW122591   1.139   5.009   1.805 -0.5955  1.2114  0.5409
 7471SOL    HW222592   1.016   4.923   1.869 -0.1196  0.1897  0.1100
 7472SOL     OW22593   6.800   5.187   6.989 -0.3517 -0.1199  0.1524
 7472SOL    HW122594   6.827   5.226   7.077 -1.6982 -0.5985  0.8073
 7472SOL    HW222595   6.864   5.114   6.964 -0.5274 -0.6808  1.2555
 7473SOL     OW22596   7.638   1.852   2.078 -0.3526 -0.4897 -0.2510
 7473SOL    HW122597   7.664   1.756   2.091  0.9536  0.0197  1.1673
 7473SOL    HW222598   7.693   1.891   2.003 -0.2003 -0.5897 -0.1921
 7474SOL     OW22599   5.126   0.371   6.975  0.1586  0.3662  0.2446
 7474SOL    HW122600   5.055   0.307   7.005 -0.4916  0.2645 -1.4044
 7474SOL    HW222601   5.096   0.464   6.994  0.1910  0.2756  0.7666
 7475SOL     OW22602   1.539   2.447   6.007  0.1269  0.6449  0.2969
 7475SOL    HW122603   1.619   2.462   6.065 -0.2209  0.0433  0.9552
 7475SOL    HW222604   1.468   2.400   6.060  0.4418 -1.5132 -1.0693
 7476SOL     OW22605   4.149   6.873   2.565 -0.3669  0.1843 -0.0773
 7476SOL    HW122606   4.208   6.811   2.616 -0.5700  0.0027 -0.0657
 7476SOL    HW222607   4.201   6.955   2.541 -0.3083  0.3303  0.5372
 7477SOL     OW22608   2.809   3.588   4.241 -0.2314 -0.1791 -0.0785
 7477SOL    HW122609   2.901   3.547   4.249 -0.2086 -0.0170  0.5504
 7477SOL    HW222610   2.787   3.637   4.325 -0.1542  1.3502 -0.9194
 7478SOL     OW22611   0.492   1.257   0.974 -0.5516  0.1944 -0.9240
 7478SOL    HW122612   0.397   1.230   0.994 -0.6176 -1.2625 -2.9169
 7478SOL    HW222613   0.495   1.356   0.959 -1.8010  0.2412 -1.0187
 7479SOL     OW22614   7.412   0.208   5.637 -0.1111  0.5137  0.5605
 7479SOL    HW122615   7.346   0.235   5.567  1.2204  1.0512 -0.5214
 7479SOL    HW222616   7.451   0.119   5.615  0.2579  0.6497  0.6483
 7480SOL     OW22617   6.494   3.477   0.706 -0.0922 -0.5348  0.3056
 7480SOL    HW122618   6.443   3.392   0.693 -0.3675 -0.2110 -0.8567
 7480SOL    HW222619   6.501   3.526   0.619  1.6370 -0.2500  0.5564
 7481SOL     OW22620   6.276   3.081   6.333  0.0443  0.3521  0.1456
 7481SOL    HW122621   6.351   3.143   6.310  0.2817  0.7191  1.8027
 7481SOL    HW222622   6.191   3.117   6.295  0.3852  1.0049 -0.0225
 7482SOL     OW22623   6.154   1.579   3.351 -0.3966 -0.1405 -0.4002
 7482SOL    HW122624   6.130   1.645   3.421  0.0839 -2.3518  2.0060
 7482SOL    HW222625   6.088   1.585   3.275 -1.4437  1.7674  0.6048
 7483SOL     OW22626   0.361   3.171   8.161 -0.0766  0.2474  0.2865
 7483SOL    HW122627   0.264   3.193   8.170 -0.3822 -0.5725 -0.7788
 7483SOL    HW222628   0.402   3.162   8.252 -1.3124 -0.6843  0.7769
 7484SOL     OW22629   7.428   6.047   1.497 -0.4400  0.0079 -0.2481
 7484SOL    HW122630   7.385   5.957   1.502  2.5775 -1.5418 -0.2713
 7484SOL    HW222631   7.460   6.075   1.587  2.3525 -0.9801 -0.8452
 7485SOL     OW22632   4.683   0.261   2.408  0.2243 -0.2709 -0.2629
 7485SOL    HW122633   4.758   0.327   2.408 -1.0373  1.2285  0.4384
 7485SOL    HW222634   4.618   0.285   2.335  0.0408 -1.0988 -0.3800
 7486SOL     OW22635   0.886   7.992   2.643  0.1186 -0.0030  0.3792
 7486SOL    HW122636   0.853   8.069   2.697  0.2584 -0.9277  1.8489
 7486SOL    HW222637   0.897   7.912   2.702  1.3533 -0.7651 -0.8170
 7487SOL     OW22638   4.319   1.956   2.600 -0.2092 -0.2436 -0.5519
 7487SOL    HW122639   4.313   1.935   2.697  1.0336  1.7403  0.0233
 7487SOL    HW222640   4.407   1.927   2.564 -1.0171 -1.8257 -1.3715
 7488SOL     OW22641   4.571   1.987   7.383 -0.0110 -0.2193 -0.2918
 7488SOL    HW122642   4.542   1.903   7.430 -1.4673  0.7190  0.5421
 7488SOL    HW222643   4.510   2.062   7.408  1.0296  1.0138 -1.3413
 7489SOL     OW22644   8.567   7.731   1.183 -0.0146  0.4294 -0.0090
 7489SOL    HW122645   8.597   7.671   1.257  1.6123  0.3551 -0.7118
 7489SOL    HW222646   8.539   7.819   1.222 -1.9916 -0.5511  0.9728
 7490SOL     OW22647   0.302   6.962   4.672  0.0588 -0.0643  0.1722
 7490SOL    HW122648   0.309   6.870   4.710  0.1171 -0.8818 -1.6914
 7490SOL    HW222649   0.220   7.007   4.707 -1.6177 -1.9693 -1.0790
 7491SOL     OW22650   6.575   1.500   7.748  0.1183 -0.2015  0.3673
 7491SOL    HW122651   6.540   1.425   7.693 -1.6569  0.9465 -0.1425
 7491SOL    HW222652   6.500   1.562   7.773  1.5168  1.4389  0.7282
 7492SOL     OW22653   6.495   5.407   0.960  0.2290 -0.2244  0.1191
 7492SOL    HW122654   6.532   5.494   0.928 -0.2903 -0.1369 -0.2655
 7492SOL    HW222655   6.406   5.424   1.003  1.1599 -0.2455  2.1882
 7493SOL     OW22656   8.414   6.523   1.812 -0.5305  0.0604  0.1133
 7493SOL    HW122657   8.475   6.579   1.755 -0.9656 -0.4352 -0.8756
 7493SOL    HW222658   8.458   6.436   1.831 -1.0792 -0.4745 -0.9754
 7494SOL     OW22659   6.154   2.656   5.726 -0.1407 -0.2356 -0.0968
 7494SOL    HW122660   6.145   2.593   5.649 -1.0812  1.4483 -1.4387
 7494SOL    HW222661   6.228   2.720   5.708 -0.3739  0.1766  0.3809
 7495SOL     OW22662   1.416   7.597   8.302  0.2444  0.3957 -0.0679
 7495SOL    HW122663   1.408   7.629   8.397  0.7511  0.7016 -0.1294
 7495SOL    HW222664   1.502   7.629   8.263  0.6646 -0.8479 -0.2015
 7496SOL     OW22665   0.660   7.299   6.866 -0.1668  0.3210 -0.0267
 7496SOL    HW122666   0.583   7.356   6.838 -0.7112 -0.0888  0.5868
 7496SOL    HW222667   0.639   7.256   6.954  1.4711  1.5717  1.0381
 7497SOL     OW22668   2.133   1.773   3.125  0.1741  0.3386  0.3855
 7497SOL    HW122669   2.211   1.796   3.067  0.6992  1.0827  1.3590
 7497SOL    HW222670   2.048   1.789   3.075  0.6166 -1.3429 -1.0157
 7498SOL     OW22671   5.606   2.796   0.960  0.0630  0.3750  0.3302
 7498SOL    HW122672   5.559   2.826   1.042  0.0890  1.1868  0.0514
 7498SOL    HW222673   5.678   2.731   0.985  1.1467  1.8192  1.1369
 7499SOL     OW22674   7.483   3.298   7.239  0.0291 -0.1580 -0.8326
 7499SOL    HW122675   7.534   3.227   7.289 -0.6831  0.0367  0.1909
 7499SOL    HW222676   7.548   3.364   7.200  0.5620  0.8384  1.5662
 7500SOL     OW22677   5.037   6.437   5.744  0.0573  0.5051  0.2812
 7500SOL    HW122678   5.046   6.478   5.834 -0.4056  0.4672  0.3507
 7500SOL    HW222679   5.109   6.368   5.730  0.2751  0.6847  0.5224
 7501SOL     OW22680   5.550   2.137   1.692  0.0424 -0.2958 -0.0235
 7501SOL    HW122681   5.469   2.078   1.696 -0.1827  0.0118 -0.0540
 7501SOL    HW222682   5.632   2.081   1.705 -0.1672 -0.6239 -0.0900
 7502SOL     OW22683   5.712   7.516   3.048  0.6756 -0.4415 -0.1753
 7502SOL    HW122684   5.722   7.613   3.070 -0.2398  0.4576 -3.1875
 7502SOL    HW222685   5.767   7.495   2.966  0.8471 -2.4941  0.4100
 7503SOL     OW22686   5.244   0.262   0.020  0.0032 -0.2840  0.0175
 7503SOL    HW122687   5.214   0.299   0.108 -1.1084 -0.2126 -0.3710
 7503SOL    HW222688   5.175   0.199  -0.014  0.4196 -0.3008 -0.8082
 7504SOL     OW22689   4.951   3.164   0.605  0.2511  0.4533 -0.6694
 7504SOL    HW122690   4.983   3.236   0.667  0.9091 -2.1436  2.3156
 7504SOL    HW222691   4.921   3.204   0.519  1.1697  4.1543  0.5527
 7505SOL     OW22692   7.179   8.386   8.104  0.4320  0.0633 -0.4686
 7505SOL    HW122693   7.194   8.350   8.197 -0.9730 -2.0206 -0.9831
 7505SOL    HW222694   7.091   8.354   8.069  0.5665  1.4686 -2.2547
 7506SOL     OW22695   0.275   7.038   5.319  0.7128 -1.2546  0.0710
 7506SOL    HW122696   0.330   7.114   5.284 -0.1641 -0.7849 -0.3218
 7506SOL    HW222697   0.182   7.046   5.285  0.6514 -2.6341 -0.1479
 7507SOL     OW22698   7.366   4.214   1.288 -0.5420  0.3895  0.1715
 7507SOL    HW122699   7.443   4.237   1.347 -0.4340 -0.3521  0.3279
 7507SOL    HW222700   7.398   4.158   1.212 -1.0927 -0.8767  0.8456
 7508SOL     OW22701   6.458   8.665   5.412  0.2343 -0.1059 -0.5397
 7508SOL    HW122702   6.467   8.680   5.510 -2.0827  0.3819 -0.3395
 7508SOL    HW222703   6.452   8.753   5.365  0.9767 -0.3431 -1.1009
 7509SOL     OW22704   0.493   7.320   0.799 -0.4791  0.1499  0.3942
 7509SOL    HW122705   0.585   7.358   0.797 -0.1414 -0.6628 -0.4130
 7509SOL    HW222706   0.498   7.220   0.800 -1.3506  0.1021  0.7401
 7510SOL     OW22707   3.960   2.370   6.941 -0.3453  0.4092  0.5339
 7510SOL    HW122708   3.969   2.341   6.846 -0.5730  1.0010  0.3244
 7510SOL    HW222709   3.871   2.341   6.977 -0.0176 -0.3269  0.7534
 7511SOL     OW22710   4.366   7.176   5.869  0.0410  0.1765 -0.1623
 7511SOL    HW122711   4.454   7.217   5.844 -0.0090  0.1900 -0.3135
 7511SOL    HW222712   4.346   7.101   5.806 -0.2963  0.4943 -0.4358
 7512SOL     OW22713   4.186   1.895   8.208 -0.5854 -0.0877 -0.0026
 7512SOL    HW122714   4.099   1.926   8.171 -1.0027 -1.7055 -0.4657
 7512SOL    HW222715   4.210   1.950   8.288 -1.8649  0.5813 -0.0550
 7513SOL     OW22716   6.160   8.279   6.296 -0.1311  0.0924 -0.0631
 7513SOL    HW122717   6.238   8.296   6.357  0.0184  0.5548 -0.3764
 7513SOL    HW222718   6.191   8.231   6.214  0.7810  4.2059 -2.4074
 7514SOL     OW22719   0.206   6.963   0.727 -0.6725 -0.0311 -0.4320
 7514SOL    HW122720   0.228   6.984   0.822 -1.8940  0.4332 -0.2360
 7514SOL    HW222721   0.281   6.992   0.668  0.6394 -1.4172  0.4712
 7515SOL     OW22722   7.897   8.392   1.005  0.1147  0.0045  0.0265
 7515SOL    HW122723   7.861   8.305   0.972  0.3682 -0.1051  0.0358
 7515SOL    HW222724   7.947   8.437   0.931 -0.2784  0.2854 -0.0692
 7516SOL     OW22725   1.671   3.772   8.796  0.1343 -0.2530 -0.4798
 7516SOL    HW122726   1.630   3.806   8.881  1.9930 -0.6259  0.6310
 7516SOL    HW222727   1.728   3.693   8.817 -0.2970 -1.0824 -2.2906
 7517SOL     OW22728   4.111   5.720   8.564  0.0578  0.3119 -0.1938
 7517SOL    HW122729   4.020   5.754   8.543  0.3505 -0.0672 -2.3633
 7517SOL    HW222730   4.130   5.639   8.509  2.4059  1.5408 -1.3554
 7518SOL     OW22731   3.176   7.354   1.588  0.0999  0.1673  0.2047
 7518SOL    HW122732   3.206   7.447   1.610 -0.0582 -0.0078  1.2220
 7518SOL    HW222733   3.229   7.320   1.510  0.9383  0.7039  0.5176
 7519SOL     OW22734   7.628   0.165   7.140  0.0733  0.2361  0.1791
 7519SOL    HW122735   7.571   0.243   7.116  1.0266  0.8048 -0.3090
 7519SOL    HW222736   7.596   0.125   7.226 -0.6983  0.8884  0.2053
 7520SOL     OW22737   2.853   8.082   5.696  1.1429  0.3491 -0.4057
 7520SOL    HW122738   2.896   8.035   5.619  0.3437 -1.0167 -0.0371
 7520SOL    HW222739   2.904   8.063   5.780  0.5275 -0.3032 -0.1694
 7521SOL     OW22740   6.723   5.407   1.245 -0.1054 -0.5890 -0.6354
 7521SOL    HW122741   6.797   5.469   1.272 -0.6495  0.1623 -0.8305
 7521SOL    HW222742   6.647   5.415   1.310 -1.4901  1.3403 -2.3520
 7522SOL     OW22743   2.421   4.022   8.483  0.9207  0.3384  0.0665
 7522SOL    HW122744   2.413   4.091   8.411  3.9096  1.4821  0.6664
 7522SOL    HW222745   2.486   3.951   8.455  0.3341 -0.4777  0.7314
 7523SOL     OW22746   3.616   3.927   4.908 -0.5293 -0.0995  0.3381
 7523SOL    HW122747   3.633   3.867   4.829 -0.2287  0.6789 -0.2087
 7523SOL    HW222748   3.528   3.974   4.895 -0.3961  0.1626  0.3730
 7524SOL     OW22749   2.016   5.578   2.152 -0.3716 -0.2561  0.4234
 7524SOL    HW122750   2.071   5.631   2.089  1.5384  0.2284  2.3683
 7524SOL    HW222751   1.930   5.626   2.171 -0.7069 -0.1369 -1.2593
 7525SOL     OW22752   1.510   3.875   2.416 -0.3990  0.4132 -0.3647
 7525SOL    HW122753   1.573   3.898   2.342 -1.4351  0.7631 -1.1629
 7525SOL    HW222754   1.421   3.917   2.398 -1.2745 -1.2072  0.0412
 7526SOL     OW22755   6.794   2.990   1.098  0.4517  0.4714 -0.3384
 7526SOL    HW122756   6.840   2.902   1.097  0.4893  0.4989 -0.9671
 7526SOL    HW222757   6.700   2.979   1.067  0.3388  0.5925 -0.0493
 7527SOL     OW22758   5.546   5.122   0.746  0.2745 -0.2626  0.1220
 7527SOL    HW122759   5.513   5.216   0.732 -1.3036 -0.9402 -1.0714
 7527SOL    HW222760   5.618   5.122   0.816  1.4329  2.0233 -0.9585
 7528SOL     OW22761   2.285   1.556   7.468  0.3380 -0.5887 -0.0067
 7528SOL    HW122762   2.372   1.579   7.424  0.7435  0.2665  1.2079
 7528SOL    HW222763   2.210   1.591   7.413  0.8924  2.4493  0.9918
 7529SOL     OW22764   5.317   3.485   4.422  0.0361  0.2630  0.2078
 7529SOL    HW122765   5.356   3.456   4.334  0.2085 -0.8325  0.6281
 7529SOL    HW222766   5.249   3.556   4.406  1.2319  1.2504 -0.6612
 7530SOL     OW22767   1.738   6.025   8.073  0.2766 -0.1628  0.3845
 7530SOL    HW122768   1.745   6.121   8.104 -1.3591  0.8286 -2.0406
 7530SOL    HW222769   1.797   6.011   7.994  1.2044 -1.4915  1.2621
 7531SOL     OW22770   0.817   7.856   1.835 -0.2479  0.0997 -0.2298
 7531SOL    HW122771   0.896   7.843   1.896  0.0545  2.9077  0.1009
 7531SOL    HW222772   0.840   7.825   1.743  1.1417  0.5495 -0.0563
 7532SOL     OW22773   3.067   6.857   4.519 -0.7585  0.3340  0.0341
 7532SOL    HW122774   3.151   6.886   4.473 -0.9781  0.4028 -0.3283
 7532SOL    HW222775   2.994   6.847   4.451 -0.6220 -1.3857  0.0963
 7533SOL     OW22776   5.090   4.034   0.096 -0.6111 -0.0865  0.2560
 7533SOL    HW122777   5.166   4.052   0.033 -0.9857 -0.4322 -0.3038
 7533SOL    HW222778   5.088   3.936   0.119 -0.6622 -0.0139  0.5659
 7534SOL     OW22779   8.389   6.061   1.598 -0.5124 -0.5387  0.0303
 7534SOL    HW122780   8.424   6.139   1.545  0.8134 -0.9783  0.2140
 7534SOL    HW222781   8.315   6.017   1.547 -1.0909  0.6560 -0.2063
 7535SOL     OW22782   2.272   5.254   7.931  0.0501  0.5276  0.1489
 7535SOL    HW122783   2.224   5.236   8.017 -2.0585  1.0378 -0.8439
 7535SOL    HW222784   2.212   5.305   7.870  2.5876  2.9372 -0.5036
 7536SOL     OW22785   0.891   5.979   5.362 -0.6017 -0.1394  0.4170
 7536SOL    HW122786   0.982   5.959   5.399 -0.5387 -1.2536 -0.3172
 7536SOL    HW222787   0.883   5.941   5.270 -2.0638 -0.7039  0.7536
 7537SOL     OW22788   3.669   6.540   5.962 -0.1256  0.1588 -0.3874
 7537SOL    HW122789   3.685   6.606   6.035  1.1035  1.1935 -1.5532
 7537SOL    HW222790   3.746   6.540   5.899 -1.5208 -0.0582 -2.1841
 7538SOL     OW22791   5.888   2.572   5.030  0.0902  0.0568  0.1940
 7538SOL    HW122792   5.832   2.631   4.973 -0.9723 -0.0890  1.0478
 7538SOL    HW222793   5.924   2.496   4.975 -2.0848 -0.8815 -0.0380
 7539SOL     OW22794   3.106   4.274   7.117  0.1962 -0.1281 -0.0265
 7539SOL    HW122795   3.027   4.215   7.095  0.2180  0.2833 -1.2927
 7539SOL    HW222796   3.185   4.217   7.137  0.2714 -0.5576 -1.4450
 7540SOL     OW22797   4.264   7.053   7.310 -0.0576 -0.6615 -0.5189
 7540SOL    HW122798   4.344   7.111   7.294  1.3692 -2.3239  0.3139
 7540SOL    HW222799   4.265   6.976   7.247 -0.7567 -0.9537 -0.1854
 7541SOL     OW22800   5.621   7.124   4.769 -0.4977  0.0321  0.0672
 7541SOL    HW122801   5.522   7.126   4.760 -0.4515  0.6218 -0.4219
 7541SOL    HW222802   5.661   7.196   4.711  0.1762  0.1958  0.7220
 7542SOL     OW22803   4.726   1.576   8.697  0.2379 -0.0840 -0.7514
 7542SOL    HW122804   4.703   1.523   8.778 -0.6735  0.8992 -0.3392
 7542SOL    HW222805   4.698   1.526   8.615  0.2728 -0.6542 -0.4159
 7543SOL     OW22806   6.570   7.643   6.671 -0.5189 -0.0109 -0.2981
 7543SOL    HW122807   6.474   7.618   6.671 -0.0442 -2.0188 -0.4299
 7543SOL    HW222808   6.593   7.687   6.584 -0.7655 -2.0102 -1.4342
 7544SOL     OW22809   1.397   4.431   7.094  0.5803 -0.4883 -0.0579
 7544SOL    HW122810   1.394   4.355   7.159 -0.1985 -0.2223  0.2252
 7544SOL    HW222811   1.457   4.503   7.130  2.0772 -1.3375 -0.7559
 7545SOL     OW22812   7.883   0.999   6.551  0.1346 -0.1253 -0.5416
 7545SOL    HW122813   7.866   1.059   6.473 -0.0202 -0.1519 -0.5282
 7545SOL    HW222814   7.981   1.001   6.574  0.3307 -0.7838 -1.2698
 7546SOL     OW22815   1.992   3.842   1.037  0.2310 -0.4045  0.0333
 7546SOL    HW122816   1.901   3.813   1.009  0.3201 -0.8435  0.1802
 7546SOL    HW222817   2.044   3.871   0.956 -0.1149  0.0720 -0.0186
 7547SOL     OW22818   1.350   4.183   7.618 -0.4601  0.0914  0.4663
 7547SOL    HW122819   1.404   4.104   7.644  0.8214  0.1064 -1.8700
 7547SOL    HW222820   1.253   4.157   7.614 -0.0016 -1.6203 -0.9359
 7548SOL     OW22821   6.995   6.624   5.886 -0.0898  0.3107 -0.1333
 7548SOL    HW122822   6.974   6.663   5.976 -1.8891  0.2322 -0.4815
 7548SOL    HW222823   7.060   6.683   5.839  0.9338  0.3193  1.2212
 7549SOL     OW22824   5.058   4.594   5.194  0.2687  0.7039 -0.5766
 7549SOL    HW122825   5.009   4.535   5.130 -1.4297  1.2074  0.2135
 7549SOL    HW222826   5.139   4.546   5.228 -0.5748 -0.8334 -0.6377
 7550SOL     OW22827   6.277   2.083   3.375  0.3467 -0.5736 -0.6474
 7550SOL    HW122828   6.331   2.133   3.307 -1.3052  0.9734 -0.8711
 7550SOL    HW222829   6.190   2.055   3.336  0.1681 -1.3875  0.2695
 7551SOL     OW22830   2.539   8.093   4.740 -0.3130 -0.1588  0.0744
 7551SOL    HW122831   2.443   8.068   4.728 -0.3214 -1.4376  2.3544
 7551SOL    HW222832   2.585   8.024   4.796  1.6032  1.1227  0.1657
 7552SOL     OW22833   5.018   0.007   7.498 -0.4947  0.3450  0.2176
 7552SOL    HW122834   5.099  -0.025   7.448 -1.6053 -0.0067 -1.4087
 7552SOL    HW222835   4.983  -0.067   7.554 -1.1778 -0.3423 -1.0757
 7553SOL     OW22836   8.099   5.638   0.594 -0.4182  0.1446  0.8216
 7553SOL    HW122837   8.124   5.563   0.534 -2.1232  0.2758 -0.1125
 7553SOL    HW222838   8.148   5.630   0.681  1.7487 -0.3120 -0.3694
 7554SOL     OW22839   7.734   5.926   0.656  0.3744 -0.2033  0.0529
 7554SOL    HW122840   7.697   5.945   0.565 -0.6521 -0.9968  0.2802
 7554SOL    HW222841   7.768   6.010   0.697 -0.4832  0.4219 -0.4897
 7555SOL     OW22842   4.427   4.601   1.491 -0.8010 -0.3311 -0.0499
 7555SOL    HW122843   4.373   4.682   1.514 -0.7433 -0.2874 -0.0682
 7555SOL    HW222844   4.381   4.519   1.525 -2.8022 -0.6839 -3.2633
 7556SOL     OW22845   3.539   8.232   5.345 -0.2796  0.2698 -0.0399
 7556SOL    HW122846   3.522   8.181   5.260 -2.1452  0.2308  0.3227
 7556SOL    HW222847   3.452   8.263   5.383  0.4608 -0.2801  2.2309
 7557SOL     OW22848   0.190   7.863   1.190  0.0095 -0.1649 -0.5303
 7557SOL    HW122849   0.215   7.775   1.232  1.2012  0.5651  0.3599
 7557SOL    HW222850   0.260   7.889   1.123  0.1903  0.5716 -0.0640
 7558SOL     OW22851   3.869   3.291   5.015  0.2614 -0.1883  0.0578
 7558SOL    HW122852   3.849   3.389   5.009 -0.7766 -0.3562  0.5347
 7558SOL    HW222853   3.941   3.276   5.083  0.1318  0.2080  0.2867
 7559SOL     OW22854   8.271   0.250   6.804  0.0345 -0.2755 -0.7609
 7559SOL    HW122855   8.260   0.349   6.798  0.1969 -0.2997 -1.6406
 7559SOL    HW222856   8.368   0.227   6.795 -0.0692 -0.5503 -1.1737
 7560SOL     OW22857   8.818   0.473   4.373 -0.0154  0.4496  0.1591
 7560SOL    HW122858   8.873   0.486   4.456  0.4253 -0.0755 -0.0444
 7560SOL    HW222859   8.869   0.417   4.308  0.4822  2.4265 -1.2716
 7561SOL     OW22860   8.273   2.476   1.165 -0.2343 -0.3967  0.1306
 7561SOL    HW122861   8.281   2.538   1.087 -2.0126 -0.5987 -0.2468
 7561SOL    HW222862   8.179   2.443   1.172  0.3831 -2.0801  1.0801
 7562SOL     OW22863   3.362   5.618   8.247  0.1930 -0.5700 -0.5718
 7562SOL    HW122864   3.406   5.576   8.168  0.9820 -0.9375  0.0552
 7562SOL    HW222865   3.275   5.659   8.218  0.8970  0.1187 -1.8144
 7563SOL     OW22866   6.689   5.424   2.306  0.3502 -0.3715  0.1122
 7563SOL    HW122867   6.640   5.423   2.393 -1.6514 -2.2088 -0.9420
 7563SOL    HW222868   6.623   5.423   2.230  1.9557  2.9759 -1.5706
 7564SOL     OW22869   3.550   8.042   3.706  0.1602 -0.0609  0.5062
 7564SOL    HW122870   3.502   7.992   3.779 -0.6473 -0.0267  0.0174
 7564SOL    HW222871   3.483   8.092   3.651  0.7306 -0.3161 -0.4381
 7565SOL     OW22872   2.355   3.709   3.284  0.7622  0.0629 -0.1960
 7565SOL    HW122873   2.335   3.613   3.304 -0.7158  0.5578  0.9539
 7565SOL    HW222874   2.270   3.756   3.258  1.1051  1.4540  1.0484
 7566SOL     OW22875   3.451   0.382   0.627  0.1338 -0.4232  0.2209
 7566SOL    HW122876   3.400   0.318   0.571  1.1363 -0.8182 -0.2725
 7566SOL    HW222877   3.501   0.446   0.569  1.7443 -1.2761  0.5918
 7567SOL     OW22878   6.208   8.305   8.433 -0.3564 -0.5050 -0.2469
 7567SOL    HW122879   6.138   8.272   8.369  1.7968 -1.6925 -2.1371
 7567SOL    HW222880   6.258   8.381   8.391 -0.5821  0.4569  1.1545
 7568SOL     OW22881   0.925   2.661   1.207  0.7054  0.3619 -0.2210
 7568SOL    HW122882   0.894   2.566   1.215  1.1264  0.2663  0.2816
 7568SOL    HW222883   0.900   2.711   1.289 -0.0925  0.8667 -0.7502
 7569SOL     OW22884   2.694   1.482   6.572  0.3980 -0.3179  0.4359
 7569SOL    HW122885   2.785   1.524   6.576  1.4354 -2.5023  0.9172
 7569SOL    HW222886   2.665   1.457   6.665 -0.0741 -0.9238  0.1304
 7570SOL     OW22887   3.798   5.267   0.248  0.1376 -0.1749  0.0886
 7570SOL    HW122888   3.799   5.355   0.200 -0.0943 -0.2347 -0.0250
 7570SOL    HW222889   3.875   5.211   0.217  0.6311  0.2183  0.5889
 7571SOL     OW22890   4.790   2.868   3.832 -0.1303  0.0607  0.6534
 7571SOL    HW122891   4.774   2.780   3.877 -0.2021 -0.2774 -0.0215
 7571SOL    HW222892   4.710   2.927   3.842  0.0311  0.1715  1.3677
 7572SOL     OW22893   4.406   0.244   1.467 -0.0007  0.4088 -0.6326
 7572SOL    HW122894   4.500   0.271   1.442  0.1197  1.0418  0.4555
 7572SOL    HW222895   4.404   0.217   1.563 -0.7678 -0.4800 -0.8867
 7573SOL     OW22896   2.960   5.580   4.280  0.0595  0.1599  0.0702
 7573SOL    HW122897   2.954   5.675   4.249  0.6667  0.5937  1.2229
 7573SOL    HW222898   2.908   5.569   4.364 -0.2922 -0.6263 -0.2405
 7574SOL     OW22899   2.348   8.129   2.815 -0.4921 -0.1683 -0.3421
 7574SOL    HW122900   2.357   8.198   2.744  0.2689 -0.9940 -1.0818
 7574SOL    HW222901   2.391   8.162   2.900  3.4566 -1.1464 -1.7536
 7575SOL     OW22902   7.870   2.822   0.569  0.8090 -0.9048 -0.5412
 7575SOL    HW122903   7.947   2.785   0.518  0.5461 -0.5939 -1.1792
 7575SOL    HW222904   7.887   2.919   0.590  1.3394 -1.2639  0.8143
 7576SOL     OW22905   2.773   3.321   2.422 -0.1561  0.1698  0.4317
 7576SOL    HW122906   2.717   3.371   2.488 -2.7836 -1.9192 -0.0278
 7576SOL    HW222907   2.826   3.251   2.470  1.7764  1.7866  0.7979
 7577SOL     OW22908   4.126   0.954   1.883 -0.2645  0.5142 -0.3734
 7577SOL    HW122909   4.058   0.915   1.821 -0.4338  1.6234 -0.9134
 7577SOL    HW222910   4.142   1.050   1.859  2.7955 -0.1418 -1.3752
 7578SOL     OW22911   0.110   7.416   7.408  0.2028  0.6258 -0.2001
 7578SOL    HW122912   0.126   7.440   7.503  0.3532  0.5509 -0.2055
 7578SOL    HW222913   0.183   7.354   7.376 -1.9125 -2.6645  0.8398
 7579SOL     OW22914   8.617   8.710   2.558 -0.3440  0.2390 -0.1141
 7579SOL    HW122915   8.556   8.653   2.504 -0.2145  3.2017 -3.8155
 7579SOL    HW222916   8.704   8.721   2.509  1.0307  0.6289  2.2689
 7580SOL     OW22917   4.887   4.417   0.468  0.6865 -0.1510 -0.3955
 7580SOL    HW122918   4.839   4.399   0.383  1.0131 -0.6368 -0.4836
 7580SOL    HW222919   4.973   4.367   0.469  0.0345 -1.3190  0.8127
 7581SOL     OW22920   8.083   1.923   3.650 -0.2684 -0.0607 -0.0048
 7581SOL    HW122921   8.030   1.985   3.709  2.1397  0.6019  1.6060
 7581SOL    HW222922   8.120   1.848   3.705  2.0621  0.5821 -0.5819
 7582SOL     OW22923   6.011   4.729   3.636 -0.0727 -0.1379 -0.0245
 7582SOL    HW122924   5.959   4.716   3.720 -1.3415  1.4889 -0.4961
 7582SOL    HW222925   6.000   4.824   3.605  0.1024 -0.7849 -2.1947
 7583SOL     OW22926   6.289   5.152   0.449 -0.1365 -0.5416  0.0024
 7583SOL    HW122927   6.217   5.221   0.457 -0.4916 -0.7192 -1.3171
 7583SOL    HW222928   6.319   5.123   0.540 -0.4171  0.8883  0.5715
 7584SOL     OW22929   0.244   3.823   2.704  0.0109 -0.5626  0.6591
 7584SOL    HW122930   0.293   3.880   2.638 -0.2903 -0.1263  0.8021
 7584SOL    HW222931   0.189   3.756   2.655 -1.1148  0.5058  0.4040
 7585SOL     OW22932   2.022   8.728   2.383 -0.1880 -0.5065  0.7167
 7585SOL    HW122933   2.103   8.706   2.439  0.5548 -0.6198 -0.3816
 7585SOL    HW222934   1.940   8.721   2.440  0.5575 -0.4597  1.8397
 7586SOL     OW22935   4.345   0.858   8.474  0.4547  0.6125  0.0640
 7586SOL    HW122936   4.347   0.778   8.534 -0.5850  0.5040 -0.0393
 7586SOL    HW222937   4.434   0.867   8.429  0.0965 -1.4749 -1.2147
 7587SOL     OW22938   8.101   4.735   7.176 -0.0112 -0.3883 -0.1544
 7587SOL    HW122939   8.023   4.675   7.194 -1.3657  1.3860  0.1865
 7587SOL    HW222940   8.075   4.804   7.108  1.6641 -0.4780 -0.9337
 7588SOL     OW22941   6.530   0.750   7.678 -0.1262  0.1033 -0.2144
 7588SOL    HW122942   6.544   0.794   7.767  0.9951 -0.4434 -0.0952
 7588SOL    HW222943   6.470   0.671   7.688  1.5978 -1.1879  0.4880
 7589SOL     OW22944   6.409   6.576   6.067 -0.4582  0.3842  0.0254
 7589SOL    HW122945   6.489   6.522   6.038 -1.3219  0.2118 -2.2764
 7589SOL    HW222946   6.420   6.671   6.036  0.4293  1.3128  2.8702
 7590SOL     OW22947   2.823   3.820   1.392 -0.2794 -0.5260  0.1102
 7590SOL    HW122948   2.866   3.754   1.331 -1.9674 -1.6762  0.0863
 7590SOL    HW222949   2.797   3.774   1.477 -3.8339 -0.6544 -0.8987
 7591SOL     OW22950   5.351   3.800   1.722 -0.4769  0.1975 -0.5923
 7591SOL    HW122951   5.390   3.856   1.795  2.5817 -1.8019 -0.5029
 7591SOL    HW222952   5.279   3.742   1.759  0.5682 -0.3009  0.7117
 7592SOL     OW22953   4.448   1.029   6.579 -0.2049 -0.3629  0.3835
 7592SOL    HW122954   4.438   1.091   6.501  1.5205 -0.7377 -0.1834
 7592SOL    HW222955   4.515   0.958   6.557 -2.3124 -2.6671  0.8933
 7593SOL     OW22956   1.322   6.474   6.758  0.2354  0.0300 -0.4022
 7593SOL    HW122957   1.372   6.389   6.778  0.8770  0.1852 -1.2626
 7593SOL    HW222958   1.314   6.484   6.659 -2.9307 -0.8037 -0.3323
 7594SOL     OW22959   3.972   2.644   5.633 -0.5669  0.0222  0.5866
 7594SOL    HW122960   4.060   2.597   5.622  0.0683  1.3069 -0.1605
 7594SOL    HW222961   3.969   2.689   5.722  0.0247  0.8769  0.1973
 7595SOL     OW22962   7.066   6.570   3.025 -0.1425 -0.0992 -0.0826
 7595SOL    HW122963   7.064   6.505   3.101 -1.6790  0.0019 -0.0033
 7595SOL    HW222964   7.075   6.520   2.938 -0.2905 -0.3471  0.0442
 7596SOL     OW22965   1.470   8.700   4.938  0.0617 -0.0762  0.3387
 7596SOL    HW122966   1.381   8.744   4.944 -0.3393 -0.8501  0.2552
 7596SOL    HW222967   1.489   8.674   4.843 -0.6423 -1.9014  0.6544
 7597SOL     OW22968   0.674   2.681   5.830 -0.1978  0.1001  0.0055
 7597SOL    HW122969   0.589   2.733   5.837 -0.4341 -0.3764  0.7285
 7597SOL    HW222970   0.747   2.741   5.798 -0.2028  1.1788  1.8898
 7598SOL     OW22971   5.072   4.515   7.415  0.5874  0.6312 -0.1797
 7598SOL    HW122972   5.059   4.515   7.514  1.6336  2.3072 -0.0059
 7598SOL    HW222973   5.048   4.604   7.378 -0.2827 -0.1294 -1.5312
 7599SOL     OW22974   4.106   2.904   6.496  0.4185 -0.1101  0.3338
 7599SOL    HW122975   4.065   2.955   6.420  1.9047 -0.4910 -0.7738
 7599SOL    HW222976   4.065   2.813   6.500  0.4776 -0.1635 -0.1533
 7600SOL     OW22977   1.871   5.468   2.689  0.2964 -0.3303  0.0877
 7600SOL    HW122978   1.854   5.372   2.714 -0.2119 -0.0765  0.7380
 7600SOL    HW222979   1.838   5.485   2.597 -2.3457 -0.0498  1.0197
 7601SOL     OW22980   2.719   3.225   5.842 -0.7269 -0.3250 -0.4116
 7601SOL    HW122981   2.684   3.241   5.934 -1.3750 -0.6079 -0.6056
 7601SOL    HW222982   2.697   3.131   5.814 -0.7924 -0.1450 -0.9669
 7602SOL     OW22983   3.264   3.488   3.321 -0.4816 -0.3452  0.5418
 7602SOL    HW122984   3.201   3.508   3.396  0.3067  0.9254  0.8946
 7602SOL    HW222985   3.352   3.459   3.358 -0.1958 -0.0487  0.0977
 7603SOL     OW22986   2.519   0.878   0.695 -0.5701  0.0907 -0.1297
 7603SOL    HW122987   2.475   0.955   0.649  1.0118  0.9942 -0.2036
 7603SOL    HW222988   2.617   0.882   0.680 -0.5718 -3.1988 -2.0247
 7604SOL     OW22989   0.986   4.330   4.867  0.1910 -0.4694 -0.0149
 7604SOL    HW122990   1.070   4.367   4.827  0.4264 -2.2075 -1.1903
 7604SOL    HW222991   1.006   4.297   4.960 -0.0442  2.2733  1.1173
 7605SOL     OW22992   5.548   2.687   2.501  0.1010  0.3757 -0.4484
 7605SOL    HW122993   5.549   2.770   2.557  1.6248  0.0720  0.0061
 7605SOL    HW222994   5.514   2.710   2.410  0.7935  1.5693 -0.4317
 7606SOL     OW22995   6.632   3.732   1.891  0.3587  0.4925 -0.2997
 7606SOL    HW122996   6.672   3.755   1.802 -0.2329 -0.7210 -0.9076
 7606SOL    HW222997   6.700   3.682   1.946  0.5598  0.8001 -0.2680
 7607SOL     OW22998   7.128   0.479   2.428 -0.2525 -0.4312 -0.2927
 7607SOL    HW122999   7.119   0.578   2.427  0.4474 -0.3674 -1.2629
 7607SOL    HW223000   7.165   0.450   2.517 -1.2280  0.0829  0.3019
 7608SOL     OW23001   1.174   0.528   0.093 -0.0885 -0.6222  0.2722
 7608SOL    HW123002   1.130   0.580   0.166 -0.3930  0.4734 -0.6734
 7608SOL    HW223003   1.108   0.507   0.021  0.7594  0.5608 -0.9012
 7609SOL     OW23004   8.488   4.905   4.814 -0.0934 -0.1724  0.0263
 7609SOL    HW123005   8.580   4.935   4.791 -0.2572 -0.3287 -0.8857
 7609SOL    HW223006   8.427   4.922   4.737 -1.2799  1.7383  1.3237
 7610SOL     OW23007   5.545   2.729   2.231  0.1234 -0.3024 -0.1193
 7610SOL    HW123008   5.594   2.814   2.248 -1.5559  0.5608  0.6623
 7610SOL    HW223009   5.574   2.690   2.144 -0.6353  2.2312 -1.6025
 7611SOL     OW23010   1.983   4.085   4.682 -0.2312  0.2991 -0.0834
 7611SOL    HW123011   1.996   4.016   4.610  1.1807  0.3157  0.1288
 7611SOL    HW223012   2.031   4.169   4.657  1.5335 -0.1721  1.5052
 7612SOL     OW23013   6.882   4.233   0.309  0.2508 -0.2516  0.3203
 7612SOL    HW123014   6.929   4.147   0.328  0.0305 -0.3422  0.4564
 7612SOL    HW223015   6.948   4.309   0.313  0.5096 -0.4507 -0.1397
 7613SOL     OW23016   8.324   0.058   8.682 -0.3038 -0.0259 -0.2456
 7613SOL    HW123017   8.327   0.158   8.690 -0.7458  0.0115 -0.4858
 7613SOL    HW223018   8.417   0.021   8.681 -0.1499  0.3405  0.3600
 7614SOL     OW23019   4.971   5.156   7.110 -0.4936  0.2301 -0.2698
 7614SOL    HW123020   5.017   5.068   7.117 -0.3902  0.3425  0.6224
 7614SOL    HW223021   4.972   5.187   7.015  1.7165  0.4560 -0.2351
 7615SOL     OW23022   0.868   4.531   6.664 -0.3868  0.9752 -0.2494
 7615SOL    HW123023   0.944   4.465   6.664 -0.5292  0.8099  0.0083
 7615SOL    HW223024   0.883   4.599   6.735 -0.5276  0.8874 -0.1357
 7616SOL     OW23025   3.121   6.759   1.149  0.0889  0.3832  0.0229
 7616SOL    HW123026   3.197   6.728   1.207  0.7479 -2.1388 -1.9664
 7616SOL    HW223027   3.058   6.683   1.135  0.7820  0.3272 -3.6922
 7617SOL     OW23028   4.379   8.229   2.002 -0.8186  0.3347 -0.3016
 7617SOL    HW123029   4.408   8.324   2.007 -0.1184  0.1065  0.1166
 7617SOL    HW223030   4.332   8.213   1.916  0.7811  0.6009 -1.2643
 7618SOL     OW23031   3.656   6.643   2.281 -0.4611 -0.5375 -0.2596
 7618SOL    HW123032   3.604   6.710   2.333 -0.9470 -0.2188 -1.1293
 7618SOL    HW223033   3.725   6.690   2.225 -0.3951 -0.8090 -0.4091
 7619SOL     OW23034   4.496   4.781   6.198 -0.0726  0.1431  0.3749
 7619SOL    HW123035   4.404   4.819   6.203 -0.4175 -0.7879  1.2940
 7619SOL    HW223036   4.534   4.799   6.107 -0.8171  1.2958  0.2749
 7620SOL     OW23037   7.280   8.326   8.786  0.0556  0.3794 -0.2219
 7620SOL    HW123038   7.222   8.353   8.863  2.0456  1.0060  1.1352
 7620SOL    HW223039   7.272   8.395   8.713  0.7663  1.6702  0.8752
 7621SOL     OW23040   1.891   4.651   6.080 -0.4643 -0.0126 -0.3760
 7621SOL    HW123041   1.886   4.586   6.156 -0.5289  0.0108 -0.3604
 7621SOL    HW223042   1.801   4.693   6.067 -1.2322 -2.0697 -2.2708
 7622SOL     OW23043   8.842   3.929   8.592 -0.3798  0.4674  0.0526
 7622SOL    HW123044   8.742   3.928   8.589 -0.4068  2.0670 -0.7631
 7622SOL    HW223045   8.872   3.942   8.686 -0.9940  1.3352  0.1414
 7623SOL     OW23046   7.028   0.883   5.463 -0.0319  0.0772 -0.3247
 7623SOL    HW123047   7.046   0.954   5.395 -0.2724 -0.0446 -0.5158
 7623SOL    HW223048   7.111   0.868   5.517 -0.1423  0.8801  0.0724
 7624SOL     OW23049   0.660   6.479   6.662  0.4076  0.4056 -0.0245
 7624SOL    HW123050   0.722   6.523   6.728  1.0064 -0.7815  0.2303
 7624SOL    HW223051   0.587   6.543   6.638 -0.3653  0.5844  2.4935
 7625SOL     OW23052   4.146   0.259   0.985 -0.2805 -0.1574 -0.0944
 7625SOL    HW123053   4.101   0.340   0.947  1.7868  1.3287  0.4846
 7625SOL    HW223054   4.097   0.230   1.067 -0.5556  1.0330  0.1774
 7626SOL     OW23055   5.853   8.788   3.538 -0.0365  0.0018  0.3753
 7626SOL    HW123056   5.884   8.724   3.609 -0.1726 -0.6536 -0.1453
 7626SOL    HW223057   5.755   8.774   3.521  0.3650 -1.1593 -1.2466
 7627SOL     OW23058   0.792   7.868   8.552 -0.1677  0.3423 -0.5977
 7627SOL    HW123059   0.779   7.902   8.645  1.4778 -0.4342 -0.0424
 7627SOL    HW223060   0.862   7.923   8.506  0.1768 -0.2642 -0.8137
 7628SOL     OW23061   3.812   5.075   7.553  0.0907  0.0039 -0.2023
 7628SOL    HW123062   3.735   5.138   7.540  0.3033  0.2861 -0.1028
 7628SOL    HW223063   3.872   5.079   7.473  1.0919  1.3143  0.5679
 7629SOL     OW23064   7.909   3.637   5.776 -1.0121 -0.9791 -0.7266
 7629SOL    HW123065   7.909   3.555   5.719  0.5508 -1.2596 -0.3562
 7629SOL    HW223066   7.974   3.626   5.851 -1.9965 -0.0494  0.2996
 7630SOL     OW23067   6.486   5.388   1.400  0.0950  0.2191  0.6289
 7630SOL    HW123068   6.463   5.374   1.496  2.7871  1.1283  1.4744
 7630SOL    HW223069   6.405   5.421   1.352 -1.5592 -1.0915  2.3321
 7631SOL     OW23070   2.647   3.102   0.879  0.2305 -0.0244 -0.0223
 7631SOL    HW123071   2.614   3.196   0.887 -0.8333 -0.4616  0.9473
 7631SOL    HW223072   2.644   3.057   0.969  0.3625 -1.1040 -0.5376
 7632SOL     OW23073   8.392   4.120   3.170  0.0356 -0.2217 -0.4880
 7632SOL    HW123074   8.399   4.057   3.248  0.1999 -0.7744 -0.9465
 7632SOL    HW223075   8.303   4.109   3.126 -0.3072  0.5430  0.0003
 7633SOL     OW23076   0.230   6.223   1.794 -0.3549 -0.3125 -0.5603
 7633SOL    HW123077   0.240   6.125   1.774  1.2932 -0.2458 -0.2441
 7633SOL    HW223078   0.174   6.266   1.724 -1.6939 -1.5947 -0.3349
 7634SOL     OW23079   6.618   0.325   7.676 -0.2972 -0.8638 -0.7889
 7634SOL    HW123080   6.633   0.403   7.736  2.4726 -1.2354 -0.8986
 7634SOL    HW223081   6.624   0.354   7.581 -0.4372 -1.0070 -0.8427
 7635SOL     OW23082   5.588   8.766   8.577  0.2293 -0.2500  0.0053
 7635SOL    HW123083   5.502   8.778   8.528  0.1963  0.9408  0.3181
 7635SOL    HW223084   5.644   8.697   8.530 -0.8041 -0.8935 -0.3026
 7636SOL     OW23085   0.161   6.370   1.558 -0.0059  0.0518  0.3672
 7636SOL    HW123086   0.248   6.398   1.518  0.0485  1.1821  1.2182
 7636SOL    HW223087   0.086   6.398   1.498  0.1278  0.9229  0.5825
 7637SOL     OW23088   7.508   7.056   0.577  0.1687 -0.1436  0.3305
 7637SOL    HW123089   7.424   7.103   0.551  0.3612 -1.0430 -2.1628
 7637SOL    HW223090   7.578   7.124   0.601 -0.4971  0.7258 -0.1443
 7638SOL     OW23091   0.378   3.061   5.734 -0.6021  0.1374 -0.3513
 7638SOL    HW123092   0.369   3.129   5.807  1.4574  0.1699 -0.0804
 7638SOL    HW223093   0.313   3.081   5.661 -0.0957  2.3766 -0.2467
 7639SOL     OW23094   3.151   3.459   5.904  0.1701  0.0110  0.5180
 7639SOL    HW123095   3.128   3.488   5.997 -0.7806  0.4573  0.1607
 7639SOL    HW223096   3.070   3.416   5.862  1.0139 -1.5596  0.4065
 7640SOL     OW23097   5.718   0.958   2.596 -0.1321 -0.4333  0.2341
 7640SOL    HW123098   5.726   1.057   2.610  1.5772 -0.4203 -0.5633
 7640SOL    HW223099   5.761   0.933   2.509 -0.7953 -1.8462  0.2856
 7641SOL     OW23100   6.228   0.410   3.961  0.1131 -0.2808 -0.3956
 7641SOL    HW123101   6.255   0.317   3.937 -1.9959 -0.8382 -0.8182
 7641SOL    HW223102   6.243   0.470   3.882  0.1260 -0.5772 -0.6216
 7642SOL     OW23103   3.350   1.076   5.449  0.0995 -0.5341  0.4290
 7642SOL    HW123104   3.370   1.173   5.435  0.9674 -0.8141 -0.3888
 7642SOL    HW223105   3.377   1.024   5.368 -0.0516 -1.4986  0.9795
 7643SOL     OW23106   1.276   2.911   1.430  0.3586  0.3544  0.3640
 7643SOL    HW123107   1.364   2.957   1.447  0.1848  0.7957  0.0789
 7643SOL    HW223108   1.293   2.814   1.409  0.8167  0.5341 -0.1309
 7644SOL     OW23109   1.741   1.181   6.345 -0.2359 -0.2637 -0.3261
 7644SOL    HW123110   1.800   1.146   6.272 -0.4949 -1.6329  0.1043
 7644SOL    HW223111   1.669   1.238   6.304 -0.0189 -0.5175 -1.0879
 7645SOL     OW23112   7.758   3.518   4.640 -0.0627  0.2412 -0.1641
 7645SOL    HW123113   7.838   3.568   4.607  0.1601 -0.0432 -0.0573
 7645SOL    HW223114   7.724   3.561   4.724 -0.6916  1.0293 -0.7997
 7646SOL     OW23115   5.413   3.794   5.829 -0.3364 -0.1487 -0.2496
 7646SOL    HW123116   5.330   3.762   5.784  0.0478 -1.0127 -0.3697
 7646SOL    HW223117   5.469   3.715   5.855  0.8789  0.4451 -0.9811
 7647SOL     OW23118   2.431   0.059   5.510  0.4572 -0.0440 -0.2441
 7647SOL    HW123119   2.518   0.090   5.471  0.6819  0.4558  0.6338
 7647SOL    HW223120   2.388  -0.006   5.448  1.3465 -0.1177 -0.7967
 7648SOL     OW23121   5.682   3.271   8.843  0.3956 -0.2943 -0.5088
 7648SOL    HW123122   5.627   3.335   8.789  0.4159  0.3389  0.1969
 7648SOL    HW223123   5.639   3.259   8.933 -0.7064 -2.8086 -1.2766
 7649SOL     OW23124   3.304   6.200   6.381  0.6285  0.3412 -0.1091
 7649SOL    HW123125   3.244   6.212   6.302 -0.2111  0.4727  0.5473
 7649SOL    HW223126   3.277   6.119   6.433 -1.5109  2.4556  2.3555
 7650SOL     OW23127   6.736   0.385   4.619 -0.1668  0.1231 -0.3808
 7650SOL    HW123128   6.731   0.480   4.586 -0.4826  0.2895  0.1240
 7650SOL    HW223129   6.800   0.333   4.562  1.1670  1.0195  0.2171
 7651SOL     OW23130   1.756   2.140   8.544  0.7457 -0.1964  0.4755
 7651SOL    HW123131   1.802   2.229   8.542 -1.0810  0.7840 -0.9516
 7651SOL    HW223132   1.754   2.106   8.638  2.8002  0.5284  0.8292
 7652SOL     OW23133   3.045   3.011   5.552 -0.1618 -0.3552  0.1457
 7652SOL    HW123134   2.996   3.089   5.592 -3.0634 -1.8744 -0.2231
 7652SOL    HW223135   3.141   3.014   5.581 -1.2209  0.7091  4.1893
 7653SOL     OW23136   7.923   4.396   0.728 -0.1848  0.2117 -0.5712
 7653SOL    HW123137   7.985   4.429   0.799 -0.8913  0.2611  0.0346
 7653SOL    HW223138   7.885   4.474   0.678  0.0661  0.1911 -0.7975
 7654SOL     OW23139   8.519   4.199   6.627 -0.3904  0.1908  0.6549
 7654SOL    HW123140   8.546   4.110   6.589  1.3346  1.5625 -1.6368
 7654SOL    HW223141   8.433   4.189   6.677 -0.8053 -2.5446 -0.3857
 7655SOL     OW23142   2.114   4.208   5.996  0.2489  0.3749  0.4980
 7655SOL    HW123143   2.134   4.175   5.904 -0.3564 -0.8889  0.7930
 7655SOL    HW223144   2.026   4.256   5.996  0.7968  1.4138  0.2082
 7656SOL     OW23145   7.085   8.296   3.567 -0.2501  0.7973 -0.3286
 7656SOL    HW123146   7.061   8.383   3.610 -0.3019  0.0197  1.2570
 7656SOL    HW223147   7.079   8.222   3.634 -0.2739 -0.4578 -1.6594
 7657SOL     OW23148   6.175   0.010   4.130  0.0671 -0.2842  0.2276
 7657SOL    HW123149   6.234  -0.069   4.114 -1.7844 -1.3447 -2.0228
 7657SOL    HW223150   6.186   0.076   4.056 -0.4128  0.2479  0.6156
 7658SOL     OW23151   8.514   1.239   1.393  0.1135  0.4137 -0.5589
 7658SOL    HW123152   8.426   1.285   1.387 -0.9024 -1.2219  0.9921
 7658SOL    HW223153   8.538   1.200   1.304 -0.0096  2.0292 -1.3431
 7659SOL     OW23154   0.878   2.426   2.189 -0.0764  0.0422 -0.3606
 7659SOL    HW123155   0.946   2.368   2.233 -1.0649 -1.3560 -0.5927
 7659SOL    HW223156   0.819   2.369   2.131 -2.1287  1.0096  0.6749
 7660SOL     OW23157   6.377   2.760   8.795 -0.4306 -0.6665  0.4109
 7660SOL    HW123158   6.295   2.785   8.743  0.2333 -0.2631 -0.4610
 7660SOL    HW223159   6.410   2.840   8.847 -2.4568 -1.6195  3.4772
 7661SOL     OW23160   5.086   2.196   0.202 -0.4266 -0.3119 -0.5577
 7661SOL    HW123161   5.030   2.116   0.222 -1.7805  0.7099 -0.1615
 7661SOL    HW223162   5.077   2.220   0.105 -1.3297  0.3246 -0.3252
 7662SOL     OW23163   2.609   0.442   2.098 -0.0554 -0.8282 -0.1608
 7662SOL    HW123164   2.542   0.371   2.077 -2.2489  0.7027  1.2096
 7662SOL    HW223165   2.666   0.459   2.018 -1.4319 -2.0643 -1.4592
 7663SOL     OW23166   6.921   6.936   2.198  0.4968 -0.2302 -0.5672
 7663SOL    HW123167   6.852   6.887   2.251  0.7401  0.1181  0.0886
 7663SOL    HW223168   6.891   7.030   2.181  1.6917  0.6387  1.6270
 7664SOL     OW23169   7.243   8.569   7.419 -0.0606  0.7723  0.5766
 7664SOL    HW123170   7.178   8.509   7.466 -0.8584  0.6969 -0.5780
 7664SOL    HW223171   7.256   8.537   7.325 -0.7653  2.5566 -0.1719
 7665SOL     OW23172   0.925   5.469   4.219 -0.1616  0.3134  0.2282
 7665SOL    HW123173   0.869   5.450   4.138 -0.4618 -0.9395  0.7078
 7665SOL    HW223174   0.893   5.553   4.262 -0.9212  0.2284 -0.1513
 7666SOL     OW23175   5.357   0.975   6.617  0.3146  0.2457  0.7989
 7666SOL    HW123176   5.451   0.952   6.592  0.2997  1.4012 -0.4763
 7666SOL    HW223177   5.357   1.023   6.705  0.6529 -1.6945  1.9008
 7667SOL     OW23178   2.488   4.649   4.599  0.2640 -0.0488  0.0191
 7667SOL    HW123179   2.527   4.565   4.562  0.0906 -0.0993 -0.0492
 7667SOL    HW223180   2.483   4.718   4.527 -2.8102 -1.0567 -0.8896
 7668SOL     OW23181   6.335   3.220   1.063 -0.3103 -0.2813 -0.0396
 7668SOL    HW123182   6.269   3.234   0.989 -1.7904  0.1124  1.3110
 7668SOL    HW223183   6.420   3.267   1.041 -1.4337  1.6005 -0.5761
 7669SOL     OW23184   0.514   6.367   3.454 -0.0859  0.1143  0.1866
 7669SOL    HW123185   0.446   6.372   3.527 -1.4013  0.8100 -1.0271
 7669SOL    HW223186   0.606   6.366   3.493 -0.7772 -2.1016  1.9407
 7670SOL     OW23187   5.956   5.136   7.527 -0.3884 -0.0105  0.0889
 7670SOL    HW123188   5.955   5.138   7.427 -1.5005 -2.3694 -0.0143
 7670SOL    HW223189   5.862   5.125   7.560  0.2032 -2.1616  1.2258
 7671SOL     OW23190   3.033   5.727   2.033  0.3234 -0.0617 -0.1247
 7671SOL    HW123191   3.026   5.748   2.131  0.2384  2.2801 -0.5645
 7671SOL    HW223192   3.128   5.739   2.004 -0.1558  2.7474 -0.9220
 7672SOL     OW23193   3.529   1.242   7.653 -0.0882 -0.0676  0.2742
 7672SOL    HW123194   3.547   1.268   7.748 -0.9761 -1.7958  0.9679
 7672SOL    HW223195   3.431   1.245   7.636  0.0129 -0.4060 -0.3920
 7673SOL     OW23196   2.886   7.169   6.799  0.4382  0.1243  0.0347
 7673SOL    HW123197   2.978   7.159   6.836  0.2348 -1.4112  0.2251
 7673SOL    HW223198   2.863   7.088   6.745 -0.6229  0.6985 -0.4045
 7674SOL     OW23199   4.949   3.245   5.346 -0.1893 -0.0764 -0.2262
 7674SOL    HW123200   4.987   3.236   5.253 -0.2146 -0.0739 -0.2366
 7674SOL    HW223201   4.869   3.186   5.355 -1.8006  1.8300 -1.0596
 7675SOL     OW23202   8.164   2.338   2.820  0.9518  0.5917  0.1944
 7675SOL    HW123203   8.070   2.318   2.847  0.7561  1.5640  0.2833
 7675SOL    HW223204   8.207   2.256   2.784 -0.3702  0.4490 -1.1465
 7676SOL     OW23205   2.606   4.350   6.056  0.3152  0.3813 -0.1323
 7676SOL    HW123206   2.671   4.412   6.098  1.1669  0.3933 -1.4279
 7676SOL    HW223207   2.576   4.386   5.968  0.1713 -0.6362 -0.5180
 7677SOL     OW23208   7.482   7.103   5.983 -0.7340  0.0634 -0.0929
 7677SOL    HW123209   7.458   7.068   6.074 -0.2829 -0.4980 -0.1879
 7677SOL    HW223210   7.509   7.199   5.991  1.9928 -0.6831  0.8383
 7678SOL     OW23211   6.765   5.641   2.440 -0.2887  0.0230  0.5254
 7678SOL    HW123212   6.740   5.727   2.396  0.6261  0.3094  0.5539
 7678SOL    HW223213   6.739   5.565   2.381  0.0200  0.3641 -0.0550
 7679SOL     OW23214   1.779   6.078   1.719 -0.4848 -0.1935 -0.3898
 7679SOL    HW123215   1.841   6.156   1.713 -0.3153 -0.2110  0.8796
 7679SOL    HW223216   1.774   6.046   1.813 -2.3654 -0.2524 -0.4627
 7680SOL     OW23217   6.384   2.126   1.993 -0.0750  0.4348  0.1688
 7680SOL    HW123218   6.481   2.116   2.013 -0.2339 -1.1269  0.3141
 7680SOL    HW223219   6.337   2.164   2.073  0.4506  1.5608 -0.0368
 7681SOL     OW23220   0.735   5.296   3.022 -0.4264  0.3184 -0.1484
 7681SOL    HW123221   0.772   5.369   3.080 -0.1515 -0.4396  0.6489
 7681SOL    HW223222   0.721   5.213   3.076 -1.5283  0.0123 -0.8568
 7682SOL     OW23223   1.439   8.728   1.077  0.6288 -0.0119 -0.5306
 7682SOL    HW123224   1.498   8.781   1.016 -1.4227  0.2167 -2.4645
 7682SOL    HW223225   1.351   8.712   1.032 -0.7331 -0.5274  2.1157
 7683SOL     OW23226   5.664   0.668   0.413  0.0825 -0.3651  0.0198
 7683SOL    HW123227   5.741   0.624   0.365 -0.0706 -0.2608 -0.3243
 7683SOL    HW223228   5.608   0.717   0.347  0.0651  0.0774  0.3604
 7684SOL     OW23229   3.582   6.768   8.344 -0.0448 -0.3687  0.4420
 7684SOL    HW123230   3.634   6.724   8.417  2.7021 -0.8951 -1.6820
 7684SOL    HW223231   3.578   6.709   8.264 -0.9521  1.0944 -0.6586
 7685SOL     OW23232   2.392   3.613   0.920 -0.1889  0.1642 -0.3984
 7685SOL    HW123233   2.409   3.712   0.925 -1.8455  0.5259 -1.0719
 7685SOL    HW223234   2.293   3.597   0.914  0.0457 -1.5533 -0.1716
 7686SOL     OW23235   0.984   6.670   4.991  0.7008 -0.6289 -0.2551
 7686SOL    HW123236   1.019   6.635   5.077 -1.0866 -0.6111  0.5162
 7686SOL    HW223237   0.949   6.595   4.935 -0.8543 -0.3794  0.3360
 7687SOL     OW23238   0.282   8.239   0.290 -0.1874 -0.1189  0.4844
 7687SOL    HW123239   0.265   8.219   0.194 -0.2459  0.1054  0.4480
 7687SOL    HW223240   0.381   8.236   0.308 -0.0156  1.6098  0.0159
 7688SOL     OW23241   5.569   8.289   6.026 -0.4381 -0.0087 -0.3613
 7688SOL    HW123242   5.614   8.206   5.994  0.7090  0.6124 -0.4093
 7688SOL    HW223243   5.608   8.318   6.113  0.1887  1.2274 -1.0087
 7689SOL     OW23244   7.203   5.420   4.167 -0.0878  0.3862 -0.1508
 7689SOL    HW123245   7.232   5.324   4.164 -0.6943  0.2101 -0.7483
 7689SOL    HW223246   7.168   5.446   4.077  0.1517  1.1971 -0.0125
 7690SOL     OW23247   5.106   2.262   8.793  0.2933 -0.3795 -0.1410
 7690SOL    HW123248   5.140   2.169   8.775  1.4985  0.2914 -1.5801
 7690SOL    HW223249   5.032   2.283   8.728 -0.8599 -0.7544  1.0122
 7691SOL     OW23250   2.314   3.636   2.664 -0.3141  0.4260 -0.0877
 7691SOL    HW123251   2.275   3.727   2.680  0.1728  0.6304 -0.0484
 7691SOL    HW223252   2.387   3.619   2.730 -0.8507 -0.2693  0.3514
 7692SOL     OW23253   1.450   1.032   0.386 -0.7975  0.6785 -0.2340
 7692SOL    HW123254   1.495   1.080   0.461  1.4197  0.4561 -1.3560
 7692SOL    HW223255   1.351   1.046   0.393 -0.6323  1.1872  2.3343
 7693SOL     OW23256   6.543   2.314   5.835 -0.0899  0.5681 -0.3303
 7693SOL    HW123257   6.503   2.223   5.825  0.3854  0.4182 -1.0048
 7693SOL    HW223258   6.596   2.335   5.752  1.5434  0.5789  0.6618
 7694SOL     OW23259   1.797   0.071   1.998 -0.0255  0.1635 -0.0697
 7694SOL    HW123260   1.705   0.033   2.008  0.0614  0.0980  0.5271
 7694SOL    HW223261   1.855   0.037   2.072  1.0436 -1.4125 -1.5511
 7695SOL     OW23262   1.550   3.552   4.274 -0.1342 -0.3073  0.0899
 7695SOL    HW123263   1.526   3.520   4.366 -0.7120 -0.1147  0.0146
 7695SOL    HW223264   1.612   3.630   4.280 -1.5281  0.8139  0.3771
 7696SOL     OW23265   3.085   6.513   0.759 -0.4028  0.3062  0.1726
 7696SOL    HW123266   3.015   6.585   0.759 -0.0336  0.6847 -0.8637
 7696SOL    HW223267   3.044   6.427   0.789 -1.8955  0.0167 -2.3665
 7697SOL     OW23268   7.025   5.308   5.691  0.2263  0.5857 -0.0792
 7697SOL    HW123269   7.012   5.360   5.776  1.3767 -0.3097  0.6804
 7697SOL    HW223270   7.088   5.232   5.708 -0.7710 -0.5728 -1.3553
 7698SOL     OW23271   4.264   4.406   1.183  0.2972 -0.8404 -0.2916
 7698SOL    HW123272   4.337   4.471   1.162  0.4684 -1.0878 -0.4620
 7698SOL    HW223273   4.303   4.320   1.214  0.1265 -1.3937 -1.5472
 7699SOL     OW23274   0.485   3.146   8.808  0.7105  0.4837  0.1001
 7699SOL    HW123275   0.470   3.245   8.808  1.7315  0.6680  1.7072
 7699SOL    HW223276   0.398   3.099   8.823 -0.0519  1.0310 -2.2302
 7700SOL     OW23277   1.263   1.399   3.188  0.3246 -0.2290 -0.3005
 7700SOL    HW123278   1.351   1.446   3.183  0.0514  0.4517  0.8077
 7700SOL    HW223279   1.221   1.396   3.098  1.6333 -0.8740 -0.9141
 7701SOL     OW23280   6.630   3.275   8.796 -0.2987 -0.2661 -0.1015
 7701SOL    HW123281   6.677   3.309   8.878 -0.2050 -0.4335 -0.0874
 7701SOL    HW223282   6.639   3.176   8.790 -3.0706 -0.7160  1.4762
 7702SOL     OW23283   2.111   3.572   0.976  0.7797 -0.6251  1.0543
 7702SOL    HW123284   2.022   3.573   0.931 -0.0117 -2.7048  2.4011
 7702SOL    HW223285   2.115   3.644   1.045  1.8151  2.2478 -1.7435
 7703SOL     OW23286   7.811   1.309   5.004 -0.0135 -0.4625  0.1153
 7703SOL    HW123287   7.800   1.238   4.935 -0.7293  0.8567 -1.1993
 7703SOL    HW223288   7.789   1.272   5.094 -2.1984 -1.4704 -0.7495
 7704SOL     OW23289   1.433   5.670   4.348 -0.5769 -0.1145  0.6307
 7704SOL    HW123290   1.369   5.598   4.321  0.2082 -1.3472  1.8778
 7704SOL    HW223291   1.384   5.744   4.394 -1.4797  0.4968 -1.2351
 7705SOL     OW23292   5.077   0.409   1.472 -0.0930  0.2889 -0.2496
 7705SOL    HW123293   5.169   0.426   1.436  1.0926 -0.4353  2.1948
 7705SOL    HW223294   5.024   0.494   1.469  0.7668  0.8123 -1.3789
 7706SOL     OW23295   5.257   5.214   6.852  0.2282  0.3492 -0.1353
 7706SOL    HW123296   5.276   5.203   6.949 -0.6832 -2.4210 -0.1777
 7706SOL    HW223297   5.165   5.253   6.840 -0.8743 -1.9905  0.2070
 7707SOL     OW23298   4.575   2.531   6.390  0.0972 -0.6141 -0.0161
 7707SOL    HW123299   4.643   2.586   6.437  0.7949 -0.2752 -1.3739
 7707SOL    HW223300   4.591   2.534   6.291 -1.2012 -1.4500 -0.2886
 7708SOL     OW23301   7.097   1.172   4.722  0.1348  0.1373 -0.5155
 7708SOL    HW123302   7.013   1.139   4.766  1.1309  1.5645  2.7384
 7708SOL    HW223303   7.074   1.217   4.636 -2.3404 -0.1752 -0.0885
 7709SOL     OW23304   2.161   8.215   5.041  0.0578  0.3354  0.0933
 7709SOL    HW123305   2.252   8.247   5.065  0.6873 -1.1885 -0.1586
 7709SOL    HW223306   2.158   8.190   4.944 -0.3420 -0.5012  0.3063
 7710SOL     OW23307   3.702   7.654   7.450  0.0295 -0.2417  0.3976
 7710SOL    HW123308   3.711   7.669   7.548  0.1303  0.4325  0.2893
 7710SOL    HW223309   3.663   7.563   7.434 -1.0647  0.0815  1.1007
 7711SOL     OW23310   1.652   7.770   6.440 -0.2349 -0.1024  0.7848
 7711SOL    HW123311   1.656   7.695   6.375 -1.5282  0.0195  0.5256
 7711SOL    HW223312   1.558   7.804   6.446  0.0898  0.6899  1.8118
 7712SOL     OW23313   6.877   2.391   2.273 -0.3967  0.3049 -0.4059
 7712SOL    HW123314   6.824   2.444   2.206  0.9158  1.9059 -0.2328
 7712SOL    HW223315   6.971   2.381   2.241  0.0734  0.4761  0.8503
 7713SOL     OW23316   2.293   3.788   8.025 -0.1584  0.1101  0.1400
 7713SOL    HW123317   2.249   3.804   8.114 -1.5943 -1.0433 -0.3315
 7713SOL    HW223318   2.278   3.694   7.996  3.0957 -0.5240  0.1382
 7714SOL     OW23319   4.096   1.625   7.681  0.0586 -0.1899  0.2420
 7714SOL    HW123320   4.123   1.720   7.691  0.4579 -0.4987  2.9362
 7714SOL    HW223321   4.002   1.613   7.714  0.3986 -0.8744  1.0123
 7715SOL     OW23322   3.909   7.090   4.552  0.3289 -0.3818  0.2686
 7715SOL    HW123323   3.939   7.026   4.481  0.8343 -1.5899  1.5236
 7715SOL    HW223324   3.847   7.157   4.512 -0.5651 -1.8998 -1.0404
 7716SOL     OW23325   3.774   8.484   7.421  0.2592 -0.2654 -0.3486
 7716SOL    HW123326   3.779   8.444   7.512  0.3991  0.2462 -0.1281
 7716SOL    HW223327   3.817   8.575   7.422  1.0525 -0.6175 -1.1216
 7717SOL     OW23328   1.164   1.072   4.135  0.3588  0.3651 -0.1368
 7717SOL    HW123329   1.067   1.062   4.111  0.2253 -0.2927  0.6322
 7717SOL    HW223330   1.199   1.158   4.097 -0.7111  0.9695  0.1995
 7718SOL     OW23331   3.143   7.761   5.318 -0.2287 -0.5036  0.4760
 7718SOL    HW123332   3.080   7.839   5.315 -2.0289 -1.6306  3.5864
 7718SOL    HW223333   3.202   7.762   5.238 -1.4234  2.9686 -0.5201
 7719SOL     OW23334   6.052   1.842   3.051  0.3721  0.2707  0.5241
 7719SOL    HW123335   5.964   1.818   3.011  0.8319  1.3234 -1.2572
 7719SOL    HW223336   6.105   1.758   3.066 -0.9158 -0.3813  1.6944
 7720SOL     OW23337   3.050   1.845   6.488  0.0339  0.5583 -0.1959
 7720SOL    HW123338   3.131   1.847   6.429  0.3535  1.9677  0.2387
 7720SOL    HW223339   3.041   1.933   6.535 -0.6034 -0.2761  1.3287
 7721SOL     OW23340   5.910   1.727   6.631  0.2575 -0.3104 -0.4253
 7721SOL    HW123341   5.879   1.767   6.545  0.4944  1.1321  0.1203
 7721SOL    HW223342   6.000   1.765   6.655 -1.0525  1.6163  1.8720
 7722SOL     OW23343   2.308   2.431   6.626  0.8355  0.1552 -0.0774
 7722SOL    HW123344   2.282   2.502   6.692  2.2012 -0.1299  0.8310
 7722SOL    HW223345   2.241   2.427   6.552  0.7237  2.4094 -0.1769
 7723SOL     OW23346   6.398   6.698   1.878 -0.9754  0.3730 -0.4055
 7723SOL    HW123347   6.383   6.767   1.949 -1.1808  0.6721 -0.7411
 7723SOL    HW223348   6.355   6.727   1.793 -2.0375 -0.6920 -0.2567
 7724SOL     OW23349   2.893   6.864   0.215 -0.4722  0.1079 -0.0687
 7724SOL    HW123350   2.954   6.886   0.291 -2.9422  2.6177  1.3448
 7724SOL    HW223351   2.821   6.802   0.246 -1.3648  0.9558 -0.3971
 7725SOL     OW23352   6.701   6.715   3.153 -0.4179 -0.8286  0.6268
 7725SOL    HW123353   6.750   6.691   3.069 -0.9336 -0.7668  0.2960
 7725SOL    HW223354   6.707   6.814   3.168 -0.8053 -0.7582  0.3422
 7726SOL     OW23355   0.943   5.939   3.769 -0.6180 -0.6648  0.0224
 7726SOL    HW123356   0.888   5.892   3.838 -1.5047  0.5227  0.1399
 7726SOL    HW223357   1.020   5.985   3.813  0.6443 -2.4618 -0.1590
 7727SOL     OW23358   2.530   1.556   7.363  0.1513 -0.2743  0.0712
 7727SOL    HW123359   2.580   1.525   7.282 -0.9383  2.3701 -1.7385
 7727SOL    HW223360   2.596   1.590   7.431  1.0017 -0.6192 -0.5569
 7728SOL     OW23361   0.829   2.998   3.377  0.7916  0.5834  0.4853
 7728SOL    HW123362   0.767   3.059   3.427 -0.3456 -1.1948  1.3555
 7728SOL    HW223363   0.879   2.941   3.443  1.9312  0.6314 -0.3080
 7729SOL     OW23364   3.896   8.263   3.169  0.2692 -0.4140 -0.6700
 7729SOL    HW123365   3.875   8.319   3.249  0.1656  1.2565 -1.8127
 7729SOL    HW223366   3.867   8.169   3.185 -0.4145  0.0492  0.9619
 7730SOL     OW23367   4.474   7.417   3.851  0.4198 -0.2362 -0.6531
 7730SOL    HW123368   4.542   7.368   3.906  0.1719  1.5454  1.3728
 7730SOL    HW223369   4.521   7.470   3.780  1.2279  0.9336  0.6929
 7731SOL     OW23370   2.042   7.609   7.117 -0.5308 -0.2862 -0.0135
 7731SOL    HW123371   2.090   7.614   7.030 -1.4639 -0.3264 -0.5502
 7731SOL    HW223372   2.025   7.702   7.151 -1.8882 -0.1790 -0.8827
 7732SOL     OW23373   6.203   1.924   2.445  0.4406  0.2423 -0.0459
 7732SOL    HW123374   6.202   2.023   2.461  0.3248  0.5964 -1.9588
 7732SOL    HW223375   6.275   1.882   2.500  1.3276  1.5885 -0.1328
 7733SOL     OW23376   3.936   6.027   3.547  0.8965  0.3728 -0.7843
 7733SOL    HW123377   4.034   6.032   3.527  1.3392 -0.3450  1.0121
 7733SOL    HW223378   3.918   6.076   3.632 -0.3093  0.3863 -1.0343
 7734SOL     OW23379   8.423   5.692   1.037 -0.1496 -0.1676 -0.2813
 7734SOL    HW123380   8.445   5.632   0.960 -2.2408 -0.5906 -0.6268
 7734SOL    HW223381   8.397   5.636   1.116 -1.2189  0.2370 -0.3234
 7735SOL     OW23382   1.928   8.383   1.854 -0.8340 -0.2161 -0.0889
 7735SOL    HW123383   1.843   8.422   1.891  0.4903  1.3759  1.4186
 7735SOL    HW223384   1.905   8.312   1.788 -3.3485 -0.7871  1.2501
 7736SOL     OW23385   1.192   1.811   7.636  0.1922  0.3755 -0.3599
 7736SOL    HW123386   1.150   1.830   7.547 -1.7950  0.9430  0.6465
 7736SOL    HW223387   1.137   1.745   7.686  0.2271  1.4574  1.1855
 7737SOL     OW23388   5.617   3.510   6.027  0.2417 -0.0940 -0.4872
 7737SOL    HW123389   5.526   3.546   6.051 -0.4987 -2.0722 -0.1926
 7737SOL    HW223390   5.686   3.579   6.048 -1.0290  0.8460  0.8181
 7738SOL     OW23391   4.933   0.374   8.601  0.2720  0.0266 -0.3167
 7738SOL    HW123392   4.937   0.472   8.579 -0.2767  0.1190 -0.0039
 7738SOL    HW223393   5.026   0.338   8.607  0.4883  0.6188 -0.0298
 7739SOL     OW23394   8.397   7.586   1.742  0.7139 -0.5216 -0.4046
 7739SOL    HW123395   8.327   7.520   1.715 -1.1055  1.1827 -0.0518
 7739SOL    HW223396   8.481   7.568   1.691 -0.2246 -2.1130 -1.4746
 7740SOL     OW23397   3.722   8.834   3.889 -0.1859  0.4126  0.4653
 7740SOL    HW123398   3.657   8.782   3.834  0.0283  0.5139  0.1096
 7740SOL    HW223399   3.677   8.915   3.926  0.2044  1.5491 -1.3830
 7741SOL     OW23400   3.499   2.798   3.246  0.5352 -0.2209 -1.0704
 7741SOL    HW123401   3.401   2.816   3.261  0.4137 -0.4038 -1.6092
 7741SOL    HW223402   3.550   2.884   3.253  0.1359  0.1381 -2.2780
 7742SOL     OW23403   7.824   5.686   0.635  0.1629 -0.2674  0.2271
 7742SOL    HW123404   7.924   5.694   0.636  0.2719 -1.4175  1.1626
 7742SOL    HW223405   7.783   5.776   0.655  1.1070 -0.3664  3.0764
 7743SOL     OW23406   1.673   8.401   2.383  0.5527 -0.2227 -0.1596
 7743SOL    HW123407   1.730   8.440   2.311  1.1478 -0.6405  0.0759
 7743SOL    HW223408   1.690   8.303   2.389 -0.0649 -0.3212  0.0383
 7744SOL     OW23409   6.773   8.150   4.546 -0.5037 -0.6498 -0.2268
 7744SOL    HW123410   6.835   8.226   4.560 -2.1313  0.6660  0.2411
 7744SOL    HW223411   6.743   8.115   4.635 -2.0495  0.1641 -0.3873
 7745SOL     OW23412   1.705   3.801   1.861 -0.2236 -0.2433  0.0223
 7745SOL    HW123413   1.710   3.845   1.771  1.0781  2.4542  1.2987
 7745SOL    HW223414   1.793   3.760   1.883 -0.6580 -1.2476 -0.0701
 7746SOL     OW23415   4.635   4.998   6.712 -0.3097  0.0469  0.3568
 7746SOL    HW123416   4.602   5.046   6.631  0.4134 -0.5654 -0.3220
 7746SOL    HW223417   4.718   4.947   6.688  1.2635  1.6792  2.0031
 7747SOL     OW23418   8.822   7.628   6.212 -0.3971  0.5824 -0.1783
 7747SOL    HW123419   8.803   7.600   6.306  0.8318 -1.5131 -0.4848
 7747SOL    HW223420   8.854   7.723   6.212  1.3452  0.0873  1.7857
 7748SOL     OW23421   4.963   7.402   4.485 -0.8733 -0.0370  0.2324
 7748SOL    HW123422   5.033   7.445   4.542  1.0786 -2.5011 -0.1550
 7748SOL    HW223423   5.006   7.351   4.411 -3.1411 -1.0739 -0.4750
 7749SOL     OW23424   0.580   4.098   0.280 -0.4730 -0.4026 -0.0039
 7749SOL    HW123425   0.614   4.005   0.265 -0.0703 -0.2051 -0.3285
 7749SOL    HW223426   0.525   4.101   0.363 -0.1318 -0.8358  0.2362
 7750SOL     OW23427   8.647   6.868   7.891 -0.3280  0.2943  0.0911
 7750SOL    HW123428   8.585   6.836   7.819 -0.2069  0.5382 -0.1200
 7750SOL    HW223429   8.721   6.922   7.850  0.3290 -0.4408  0.2759
 7751SOL     OW23430   0.456   5.909   1.304 -0.5086  0.2310 -0.0388
 7751SOL    HW123431   0.503   5.834   1.257  1.2520 -0.0978  2.1096
 7751SOL    HW223432   0.501   5.995   1.284 -1.2060  0.4465 -0.7622
 7752SOL     OW23433   0.018   8.145   6.614  0.1042 -0.2957 -0.0626
 7752SOL    HW123434  -0.021   8.133   6.705  0.1311 -0.0978 -0.0242
 7752SOL    HW223435  -0.048   8.114   6.545  0.0116 -0.2751  0.0162
 7753SOL     OW23436   7.168   3.469   3.084 -0.4468 -0.0874 -0.1884
 7753SOL    HW123437   7.104   3.545   3.077  0.6604  0.6958 -3.8058
 7753SOL    HW223438   7.249   3.498   3.134 -0.1174  1.0880 -1.3682
 7754SOL     OW23439   7.108   8.403   1.282 -0.1294  0.1795 -0.7897
 7754SOL    HW123440   7.094   8.330   1.350  0.2808  1.2591  0.5043
 7754SOL    HW223441   7.165   8.369   1.208  1.6281 -0.3233  0.7033
 7755SOL     OW23442   1.771   3.739   4.349 -0.0754  0.6435 -0.0393
 7755SOL    HW123443   1.760   3.791   4.433 -0.2528 -0.1464  0.4360
 7755SOL    HW223444   1.825   3.656   4.368  0.8037  0.9921 -0.9172
 7756SOL     OW23445   3.066   0.883   7.875  0.3372 -0.1263  0.1432
 7756SOL    HW123446   3.088   0.960   7.816  1.3233 -0.0297  0.6177
 7756SOL    HW223447   3.106   0.897   7.965 -1.9391  0.1779  1.1775
 7757SOL     OW23448   7.056   5.846   1.604  0.0356  0.2004  1.0557
 7757SOL    HW123449   7.143   5.797   1.601  0.8302  1.5254  1.4284
 7757SOL    HW223450   7.035   5.883   1.513  0.7413  1.3181  1.3325
 7758SOL     OW23451   6.036   7.937   1.813  0.2171 -0.0453  0.6070
 7758SOL    HW123452   5.966   7.949   1.743  1.6807  3.0189 -0.5139
 7758SOL    HW223453   6.076   7.846   1.804 -0.3481 -0.1243 -1.9278
 7759SOL     OW23454   6.720   3.852   1.632 -0.1506  0.3793  0.3404
 7759SOL    HW123455   6.756   3.941   1.603  0.7718  0.0020  0.3289
 7759SOL    HW223456   6.788   3.781   1.617 -1.2513 -0.5164 -0.6438
 7760SOL     OW23457   3.440   8.665   0.293 -0.6402  0.2582 -0.2030
 7760SOL    HW123458   3.349   8.704   0.278 -0.9685 -1.2661 -2.7677
 7760SOL    HW223459   3.507   8.713   0.235 -0.3892 -0.5439 -0.5964
 7761SOL     OW23460   0.279   8.487   7.337  0.2670 -0.6399 -0.1380
 7761SOL    HW123461   0.374   8.500   7.363  0.0289 -1.5306  1.2442
 7761SOL    HW223462   0.230   8.575   7.343  1.0143 -0.1426 -1.0298
 7762SOL     OW23463   4.849   2.908   5.230  0.0805  0.8162 -0.8194
 7762SOL    HW123464   4.885   2.946   5.145  1.9670  1.1506  0.0894
 7762SOL    HW223465   4.920   2.854   5.275 -1.6749 -1.5736 -0.7133
 7763SOL     OW23466   3.117   1.755   7.409 -0.1696 -0.1269 -0.6749
 7763SOL    HW123467   3.036   1.711   7.447 -0.7690  1.3212 -0.2421
 7763SOL    HW223468   3.099   1.784   7.315  0.2990 -0.9677 -1.0370
 7764SOL     OW23469   3.402   3.487   4.954 -0.4948  0.2893  0.4973
 7764SOL    HW123470   3.304   3.483   4.933 -0.5956  2.1476  0.4443
 7764SOL    HW223471   3.416   3.477   5.052 -0.7042 -0.3026  0.4706
 7765SOL     OW23472   0.935   7.648   3.367 -0.4415  0.3768  0.0601
 7765SOL    HW123473   1.006   7.639   3.437 -1.0042  2.0952  0.9012
 7765SOL    HW223474   0.918   7.559   3.326  1.7623 -0.2040  0.2492
 7766SOL     OW23475   3.977   4.346   0.890 -0.0213 -0.6444 -0.2846
 7766SOL    HW123476   3.880   4.328   0.879 -0.9725  0.8873  3.7949
 7766SOL    HW223477   3.996   4.443   0.873  0.8271 -0.9147 -0.9763
 7767SOL     OW23478   8.586   1.149   2.407  0.6746  0.3068 -0.1601
 7767SOL    HW123479   8.684   1.161   2.425  0.3644  0.6800  1.4710
 7767SOL    HW223480   8.541   1.239   2.409  0.3119  0.1451 -1.0045
 7768SOL     OW23481   4.836   8.693   2.544  0.0266 -0.3830 -0.7131
 7768SOL    HW123482   4.774   8.735   2.477 -2.0768  0.4582  1.5883
 7768SOL    HW223483   4.830   8.594   2.538 -3.9008 -0.4638  1.1992
 7769SOL     OW23484   1.851   1.032   7.571 -0.3519 -0.1575  0.4717
 7769SOL    HW123485   1.859   1.128   7.543 -0.0660 -0.0112  1.0300
 7769SOL    HW223486   1.898   1.019   7.659 -2.4079 -0.2877  1.6188
 7770SOL     OW23487   2.804   2.640   8.215  0.1292 -0.3781  0.1841
 7770SOL    HW123488   2.898   2.623   8.184  0.1646  0.4638 -0.2117
 7770SOL    HW223489   2.745   2.564   8.188  1.0222 -1.7967  2.0003
 7771SOL     OW23490   0.308   2.017   8.409 -0.0654  0.3258  0.3689
 7771SOL    HW123491   0.391   1.964   8.393  1.4934  2.3998  1.0282
 7771SOL    HW223492   0.241   1.998   8.337  0.4392 -2.3536  0.5289
 7772SOL     OW23493   5.609   6.714   1.405  0.2111  0.1377  0.1605
 7772SOL    HW123494   5.521   6.667   1.415  0.0356  0.1926 -0.9740
 7772SOL    HW223495   5.665   6.697   1.486  0.6463 -3.0795 -0.6441
 7773SOL     OW23496   3.409   2.798   7.280 -0.6198 -0.0154  0.1958
 7773SOL    HW123497   3.432   2.827   7.373 -0.5355 -0.1911  0.2295
 7773SOL    HW223498   3.310   2.780   7.275 -0.9009  1.4988 -0.1524
 7774SOL     OW23499   6.901   3.346   5.636 -0.5637  0.2560  0.0563
 7774SOL    HW123500   6.811   3.389   5.647 -1.0307 -0.4400 -0.9187
 7774SOL    HW223501   6.889   3.254   5.600  0.6278  0.9517 -2.2690
 7775SOL     OW23502   1.183   2.017   4.543 -0.1072  0.3176 -0.1518
 7775SOL    HW123503   1.262   2.003   4.603 -0.1099 -3.2626 -0.8020
 7775SOL    HW223504   1.208   2.079   4.469  0.8690  2.2066  1.6352
 7776SOL     OW23505   7.060   4.969   5.000  0.1030 -0.0895 -0.0502
 7776SOL    HW123506   7.073   5.044   5.064  0.5964 -1.7313  1.8651
 7776SOL    HW223507   6.997   4.902   5.040 -0.8033 -0.4548 -1.9657
 7777SOL     OW23508   6.056   8.252   8.073  0.0932  0.2960 -0.0104
 7777SOL    HW123509   5.984   8.307   8.029 -0.1645 -1.0493 -1.3493
 7777SOL    HW223510   6.142   8.265   8.024 -0.1555 -1.0825 -0.8674
 7778SOL     OW23511   0.788   4.932   1.352 -0.0775  0.6626 -0.2602
 7778SOL    HW123512   0.778   5.020   1.399  0.0510 -0.0035  1.0674
 7778SOL    HW223513   0.841   4.945   1.268  2.1121  1.4862  1.1675
 7779SOL     OW23514   5.002   7.376   5.936  0.2953 -0.1180  0.1423
 7779SOL    HW123515   4.967   7.369   5.843 -1.4648  0.3470  0.7355
 7779SOL    HW223516   5.102   7.387   5.933  0.4590 -1.6636 -1.6006
 7780SOL     OW23517   8.389   1.185   5.771  0.0453 -0.1870 -0.0648
 7780SOL    HW123518   8.403   1.180   5.870  0.4391  1.9634  0.0262
 7780SOL    HW223519   8.294   1.210   5.752 -0.6974 -2.9154 -0.3570
 7781SOL     OW23520   6.262   7.839   8.698 -0.0892 -0.8345 -0.1676
 7781SOL    HW123521   6.224   7.910   8.638  0.6316 -1.2018 -1.0973
 7781SOL    HW223522   6.318   7.882   8.769  1.0584 -0.4683 -1.2413
 7782SOL     OW23523   3.917   7.015   0.505 -0.4257  0.0681  0.1871
 7782SOL    HW123524   3.991   6.977   0.560  1.0063  0.3514 -1.4655
 7782SOL    HW223525   3.924   7.115   0.504 -1.3876  0.1567  0.7219
 7783SOL     OW23526   8.366   1.990   0.204 -0.3583 -0.1386  0.0449
 7783SOL    HW123527   8.296   1.958   0.268 -1.3655  0.5509 -0.6902
 7783SOL    HW223528   8.356   2.089   0.191  0.9992  0.0434  0.2066
 7784SOL     OW23529   2.287   4.823   6.806  0.5831  0.1422 -0.1407
 7784SOL    HW123530   2.322   4.916   6.794  2.2603 -0.5374 -0.7033
 7784SOL    HW223531   2.303   4.770   6.723 -1.4817 -0.3327 -0.2946
 7785SOL     OW23532   8.005   7.869   1.644  0.1989 -0.6546  0.7935
 7785SOL    HW123533   8.038   7.775   1.632 -1.4414 -1.3452  1.3361
 7785SOL    HW223534   8.003   7.916   1.556  0.8323 -1.2010  0.4823
 7786SOL     OW23535   0.139   3.196   0.159  0.1780  0.2641  0.0643
 7786SOL    HW123536   0.203   3.202   0.236  0.5581 -0.7294 -0.1493
 7786SOL    HW223537   0.048   3.174   0.193  0.6742 -1.8931  0.1643
 7787SOL     OW23538   0.659   8.359   5.047  0.1972 -0.0409  0.4175
 7787SOL    HW123539   0.711   8.289   5.095 -0.3013 -0.2903  0.6002
 7787SOL    HW223540   0.562   8.335   5.049 -0.3380  1.9759  2.7856
 7788SOL     OW23541   2.246   0.745   1.243  0.4260  0.1163 -0.2221
 7788SOL    HW123542   2.337   0.711   1.219  1.1076  1.4756  0.3578
 7788SOL    HW223543   2.250   0.843   1.260 -1.1724  0.2147 -0.2334
 7789SOL     OW23544   1.650   2.068   8.042  0.2054 -0.0508 -0.0735
 7789SOL    HW123545   1.690   1.976   8.048  1.3402  0.4972  1.7308
 7789SOL    HW223546   1.715   2.129   7.997 -0.3941 -0.0312 -0.9330
 7790SOL     OW23547   4.827   2.083   1.498 -0.2385  0.2068 -0.7605
 7790SOL    HW123548   4.886   2.012   1.459 -0.8650 -0.9257  0.2885
 7790SOL    HW223549   4.867   2.173   1.481  1.0123 -0.4496 -1.3871
 7791SOL     OW23550   0.549   8.193   7.798 -0.0448 -0.6203 -0.1735
 7791SOL    HW123551   0.608   8.142   7.734 -1.4201 -0.7297 -1.4112
 7791SOL    HW223552   0.596   8.202   7.886  2.1746  0.0644 -1.3504
 7792SOL     OW23553   4.637   5.203   2.889 -0.2382 -0.4035  0.2967
 7792SOL    HW123554   4.662   5.283   2.835  0.8937  0.6897  2.3023
 7792SOL    HW223555   4.556   5.223   2.944  1.0278  0.0419  2.0829
 7793SOL     OW23556   8.200   7.634   2.207  0.0025 -0.1797  0.2322
 7793SOL    HW123557   8.240   7.677   2.126  1.8337 -1.9945  0.0888
 7793SOL    HW223558   8.238   7.676   2.289  1.3475 -1.0834  0.0967
 7794SOL     OW23559   3.591   5.061   8.047 -0.0815 -0.2329  0.5532
 7794SOL    HW123560   3.548   4.978   8.081  0.6397 -0.7674  0.1912
 7794SOL    HW223561   3.670   5.084   8.104  0.8575 -0.8753 -0.4260
 7795SOL     OW23562   3.800   4.706   5.271 -0.6731  0.0868  0.0491
 7795SOL    HW123563   3.896   4.702   5.244 -0.5437  0.3542  0.4507
 7795SOL    HW223564   3.783   4.637   5.342 -1.5212 -2.1338 -2.1889
 7796SOL     OW23565   2.478   0.411   4.582 -0.2728 -0.3862 -0.2941
 7796SOL    HW123566   2.504   0.507   4.592 -0.3289 -0.1044 -2.4084
 7796SOL    HW223567   2.385   0.405   4.545  0.8551 -1.0997 -3.3117
 7797SOL     OW23568   2.122   1.221   4.092 -0.1829 -0.1623 -0.6031
 7797SOL    HW123569   2.121   1.165   4.009  0.8471  1.0833 -1.4975
 7797SOL    HW223570   2.212   1.213   4.136 -0.9879 -1.4884  0.9184
 7798SOL     OW23571   0.943   7.245   2.276 -0.2527  0.1955 -0.0940
 7798SOL    HW123572   0.917   7.312   2.208 -0.2610  0.6988  0.3956
 7798SOL    HW223573   1.031   7.271   2.316 -0.5560  0.2702  0.5454
 7799SOL     OW23574   3.438   6.865   3.008 -0.4234 -0.1667  0.3023
 7799SOL    HW123575   3.427   6.964   2.997 -0.6082 -0.2830 -0.6582
 7799SOL    HW223576   3.370   6.818   2.952  0.2639 -0.8393  0.0192
 7800SOL     OW23577   5.655   0.605   2.969  0.7931 -0.2227 -0.4331
 7800SOL    HW123578   5.620   0.667   3.039  0.9224  1.8020 -2.0518
 7800SOL    HW223579   5.594   0.526   2.961  1.1424 -0.9020  2.3527
 7801SOL     OW23580   8.190   6.332   1.792  0.3048 -0.5601  0.5807
 7801SOL    HW123581   8.269   6.394   1.795 -0.6733  0.7249  0.3662
 7801SOL    HW223582   8.113   6.374   1.838 -1.4092 -0.0990 -2.4531
 7802SOL     OW23583   1.508   5.380   5.658 -0.1143  0.2701  0.0346
 7802SOL    HW123584   1.524   5.421   5.569  0.7355  1.4840  0.7114
 7802SOL    HW223585   1.594   5.339   5.691 -0.3668  0.0133  0.3827
 7803SOL     OW23586   1.606   2.777   0.245 -0.1898 -0.0524 -0.2638
 7803SOL    HW123587   1.558   2.837   0.180 -1.9906 -1.8145 -0.6478
 7803SOL    HW223588   1.636   2.694   0.198  2.1441  0.3843  0.2980
 7804SOL     OW23589   0.685   4.606   1.904 -0.0590 -0.1640  0.0442
 7804SOL    HW123590   0.642   4.601   1.815 -0.0910 -0.1298  0.0580
 7804SOL    HW223591   0.697   4.702   1.931 -0.6744 -0.1750  0.3803
 7805SOL     OW23592   4.952   6.475   8.165  0.0993 -0.0804  0.3582
 7805SOL    HW123593   4.916   6.426   8.245 -0.3962 -1.1294 -0.4733
 7805SOL    HW223594   5.052   6.473   8.167  0.1058  0.6256  1.3678
 7806SOL     OW23595   5.967   5.777   7.964 -0.3875  0.1654  0.0615
 7806SOL    HW123596   5.867   5.782   7.957 -0.2982 -0.3605 -2.1485
 7806SOL    HW223597   5.996   5.682   7.951  0.3231 -0.1160  2.9452
 7807SOL     OW23598   4.575   7.676   0.149 -0.3977  0.2248 -0.0614
 7807SOL    HW123599   4.486   7.630   0.148 -0.7770  0.9361 -0.0613
 7807SOL    HW223600   4.631   7.639   0.223 -1.0913  0.4861  0.6098
 7808SOL     OW23601   0.871   6.147   0.499 -0.1962 -0.5745  0.1493
 7808SOL    HW123602   0.878   6.237   0.455 -0.4413 -0.4887  0.2852
 7808SOL    HW223603   0.838   6.080   0.432  1.7093 -0.9583 -0.4677
 7809SOL     OW23604   6.335   0.688   6.632 -0.4127 -0.0889 -0.0826
 7809SOL    HW123605   6.246   0.717   6.598  0.5382  0.8537 -1.9375
 7809SOL    HW223606   6.358   0.598   6.594  0.5320  0.8461 -1.8759
 7810SOL     OW23607   6.675   5.731   1.021  0.0936  0.2306 -0.0782
 7810SOL    HW123608   6.687   5.664   0.948 -0.6090 -1.2601  1.0966
 7810SOL    HW223609   6.606   5.697   1.086 -0.1659  2.0438  0.6466
 7811SOL     OW23610   1.687   8.433   2.647  0.7697  0.2652 -0.5464
 7811SOL    HW123611   1.627   8.507   2.677 -0.1765 -0.8889  0.5730
 7811SOL    HW223612   1.677   8.420   2.548  1.0890  1.7240 -0.7846
 7812SOL     OW23613   1.651   4.405   3.647 -0.4029 -0.4108  0.5635
 7812SOL    HW123614   1.741   4.363   3.640 -0.1730  0.3646 -1.9499
 7812SOL    HW223615   1.581   4.334   3.645  0.0892 -0.9284  1.1239
 7813SOL     OW23616   6.099   3.171   1.926  0.3703 -0.7562 -0.2734
 7813SOL    HW123617   6.085   3.143   1.831  0.3205 -0.4427 -0.3598
 7813SOL    HW223618   6.128   3.266   1.929 -2.4397  0.1801  0.1562
 7814SOL     OW23619   1.814   6.493   0.417  0.6051  0.3016 -0.0137
 7814SOL    HW123620   1.800   6.583   0.375  0.1038  0.9986  1.5547
 7814SOL    HW223621   1.912   6.475   0.425  0.7090  0.3004 -1.1331
 7815SOL     OW23622   3.867   7.005   0.074  0.1204 -0.2888 -0.7511
 7815SOL    HW123623   3.822   6.917   0.086  0.5720 -0.5580 -1.0229
 7815SOL    HW223624   3.962   6.999   0.105  0.3591 -0.1011 -1.4182
 7816SOL     OW23625   6.478   4.971   1.194 -0.8601  0.2217 -0.1916
 7816SOL    HW123626   6.571   4.958   1.230 -0.5941  0.1591 -0.8872
 7816SOL    HW223627   6.464   5.068   1.173 -1.3468  0.4100  0.9607
 7817SOL     OW23628   2.718   5.044   8.250 -0.3663 -0.1205 -0.0059
 7817SOL    HW123629   2.795   5.069   8.309  0.1462 -0.8718 -0.3368
 7817SOL    HW223630   2.671   5.127   8.221  1.3211  0.5198 -1.1091
 7818SOL     OW23631   0.056   4.921   6.437 -0.3037 -0.5433 -0.3630
 7818SOL    HW123632   0.128   4.858   6.407  0.6884  0.1156  0.5641
 7818SOL    HW223633  -0.016   4.870   6.485  1.4735 -0.8242  2.2026
 7819SOL     OW23634   4.623   4.085   3.506 -0.2664  0.2474 -0.1015
 7819SOL    HW123635   4.602   4.162   3.446  0.5334 -0.9797 -2.0382
 7819SOL    HW223636   4.609   4.112   3.601 -1.5966  2.2545 -0.8125
 7820SOL     OW23637   0.977   8.177   5.888  0.0059 -0.2098 -0.1820
 7820SOL    HW123638   0.921   8.103   5.849  0.5333 -0.3298 -0.7275
 7820SOL    HW223639   1.074   8.154   5.877  0.1617 -0.0433  0.8353
 7821SOL     OW23640   1.429   6.371   5.383 -0.1327  0.4441 -0.6982
 7821SOL    HW123641   1.505   6.421   5.425  0.8282 -1.9105  0.5346
 7821SOL    HW223642   1.428   6.386   5.285  1.5971  0.9425 -0.6591
 7822SOL     OW23643   0.303   8.118   2.628  0.1316 -0.0957 -0.4633
 7822SOL    HW123644   0.308   8.111   2.728  3.1430 -0.2614 -0.5318
 7822SOL    HW223645   0.321   8.028   2.588 -1.1863 -0.0571 -1.1859
 7823SOL     OW23646   5.300   2.124   5.509 -0.3484  0.1759 -0.7800
 7823SOL    HW123647   5.236   2.185   5.460  1.5436  1.5136 -1.7048
 7823SOL    HW223648   5.367   2.179   5.559  0.5755 -1.1774 -0.4795
 7824SOL     OW23649   2.773   1.054   6.472  0.2373 -0.0464 -0.3826
 7824SOL    HW123650   2.679   1.087   6.487  0.0305 -0.8093  0.0423
 7824SOL    HW223651   2.837   1.112   6.522 -0.0165  0.4059 -0.5739
 7825SOL     OW23652   8.609   7.087   5.936  0.4513 -0.3129  0.1364
 7825SOL    HW123653   8.635   7.055   5.845  2.3857  2.4384 -0.4100
 7825SOL    HW223654   8.554   7.170   5.928  0.2431 -0.2889  1.4924
 7826SOL     OW23655   1.862   2.638   6.437 -0.1584  0.0643  0.0540
 7826SOL    HW123656   1.771   2.629   6.477  0.7583 -3.2402  1.8652
 7826SOL    HW223657   1.909   2.717   6.477 -1.9777  1.4708 -0.4922
 7827SOL     OW23658   6.280   0.809   2.125  0.0622  0.4999 -0.2783
 7827SOL    HW123659   6.236   0.776   2.209  2.0179 -0.0926  0.5798
 7827SOL    HW223660   6.210   0.838   2.060 -1.6899 -2.2927  0.1739
 7828SOL     OW23661   1.203   7.459   4.643 -0.6260  0.4353  0.2058
 7828SOL    HW123662   1.161   7.547   4.666 -0.4606  0.2908  1.0971
 7828SOL    HW223663   1.147   7.412   4.575 -0.8330  1.1312 -0.1157
 7829SOL     OW23664   8.720   0.715   3.357 -0.0175 -0.3497  0.3543
 7829SOL    HW123665   8.681   0.711   3.266 -1.7912  0.2906  1.0449
 7829SOL    HW223666   8.775   0.632   3.374 -1.4966 -1.5500 -0.4879
 7830SOL     OW23667   5.336   1.745   6.815  0.4646  0.3458  0.6121
 7830SOL    HW123668   5.373   1.668   6.868  0.4848  0.8517  1.3519
 7830SOL    HW223669   5.407   1.816   6.806  0.7399 -0.0698 -0.8156
 7831SOL     OW23670   0.441   7.594   3.885  0.1658  0.0130  0.1566
 7831SOL    HW123671   0.504   7.669   3.904 -0.8970  1.1643 -0.6756
 7831SOL    HW223672   0.412   7.598   3.789 -3.4541  1.4387  1.1232
 7832SOL     OW23673   7.143   2.268   7.034  0.0445 -0.2811  0.3084
 7832SOL    HW123674   7.236   2.281   7.000  0.1817  2.7054  1.4965
 7832SOL    HW223675   7.146   2.219   7.121  0.3190 -1.6957 -0.4759
 7833SOL     OW23676   3.408   7.092   5.058 -0.6719 -0.3531 -0.2952
 7833SOL    HW123677   3.488   7.136   5.017 -0.8582  1.2128  0.9644
 7833SOL    HW223678   3.325   7.142   5.032 -0.9176 -0.1030  0.9065
 7834SOL     OW23679   6.352   3.498   6.724 -0.2096  0.1823 -0.7256
 7834SOL    HW123680   6.359   3.463   6.818 -2.8615 -0.7505 -0.7974
 7834SOL    HW223681   6.302   3.432   6.668 -0.7000  1.7646 -2.2225
 7835SOL     OW23682   2.045   1.249   2.868  0.1832 -0.0246  0.0511
 7835SOL    HW123683   1.965   1.303   2.895 -0.2917 -1.6506  2.1081
 7835SOL    HW223684   2.016   1.175   2.808  0.5084  0.6084 -0.9215
 7836SOL     OW23685   3.889   8.205   6.320 -0.5509 -0.0724  0.4726
 7836SOL    HW123686   3.835   8.123   6.340 -1.5898  0.4150 -0.2055
 7836SOL    HW223687   3.867   8.276   6.388 -1.0666  0.2448 -0.0069
 7837SOL     OW23688   8.707   7.453   6.018 -0.3381  0.1538  0.1185
 7837SOL    HW123689   8.763   7.477   5.939 -0.5803  0.3216 -0.0025
 7837SOL    HW223690   8.718   7.522   6.090 -0.4688  0.2423  0.0542
 7838SOL     OW23691   4.642   0.507   7.480  0.0960  0.4444 -0.2634
 7838SOL    HW123692   4.560   0.540   7.527  0.2588  1.1566 -0.4600
 7838SOL    HW223693   4.688   0.439   7.536 -1.2944 -0.8875 -0.6853
 7839SOL     OW23694   3.565   2.132   0.864  0.2167  0.0065  0.0577
 7839SOL    HW123695   3.584   2.189   0.784  0.7186  1.8378  1.3956
 7839SOL    HW223696   3.469   2.140   0.889 -0.4258 -2.1756 -1.4892
 7840SOL     OW23697   0.264   5.462   1.747 -0.1633  0.0827 -0.1095
 7840SOL    HW123698   0.212   5.515   1.815  0.0676 -0.4855  0.5218
 7840SOL    HW223699   0.207   5.387   1.714  0.1104 -0.2896  0.2679
 7841SOL     OW23700   6.230   8.515   5.409  0.3427 -0.1681  0.2267
 7841SOL    HW123701   6.262   8.428   5.372 -0.1838 -0.5190  0.5968
 7841SOL    HW223702   6.308   8.578   5.416  0.7048 -0.5635 -0.1501
 7842SOL     OW23703   0.518   3.270   1.140 -0.1203  0.2813 -0.1419
 7842SOL    HW123704   0.572   3.196   1.099  1.5146  1.3725 -0.0903
 7842SOL    HW223705   0.457   3.232   1.209  0.8595 -1.0008  0.0710
 7843SOL     OW23706   2.369   5.163   3.760  0.4464  0.4645 -1.0058
 7843SOL    HW123707   2.325   5.091   3.707  0.8087  0.2515 -1.0219
 7843SOL    HW223708   2.327   5.168   3.851 -1.0512  1.6851 -1.7152
 7844SOL     OW23709   7.980   4.308   0.438  0.4960 -0.1681 -0.3304
 7844SOL    HW123710   7.938   4.306   0.529 -0.9457 -0.8569 -0.9900
 7844SOL    HW223711   7.957   4.225   0.388  1.7434 -0.0530 -1.1399
 7845SOL     OW23712   3.730   1.254   2.412 -0.4496  0.3172  0.2768
 7845SOL    HW123713   3.779   1.306   2.482  1.2805 -2.4169  1.2437
 7845SOL    HW223714   3.644   1.221   2.450 -1.3638  2.0399 -0.2114
 7846SOL     OW23715   1.209   1.128   8.691 -0.2837  0.1920 -0.3058
 7846SOL    HW123716   1.306   1.151   8.682 -0.0810 -0.2396  0.6219
 7846SOL    HW223717   1.153   1.210   8.678  0.1152  0.2104 -2.1556
 7847SOL     OW23718   3.341   2.097   5.771  0.3555 -0.3129  0.1033
 7847SOL    HW123719   3.399   2.110   5.691  0.3016  0.2912  0.1581
 7847SOL    HW223720   3.245   2.106   5.744  0.2242 -2.1049 -0.1439
 7848SOL     OW23721   8.827   5.098   0.573 -0.2249 -0.4331  0.7761
 7848SOL    HW123722   8.826   5.024   0.640  1.7793 -1.1049  0.1424
 7848SOL    HW223723   8.921   5.119   0.547 -0.7889  1.7478  0.2506
 7849SOL     OW23724   6.229   6.176   4.524 -1.0072 -0.1162 -0.2644
 7849SOL    HW123725   6.321   6.206   4.501 -1.2440 -0.1102 -1.2232
 7849SOL    HW223726   6.233   6.084   4.563 -0.5056  0.2765  0.6379
 7850SOL     OW23727   2.611   1.386   7.633  0.1680  0.9500  0.4321
 7850SOL    HW123728   2.521   1.381   7.591  0.0417 -0.7915  0.8293
 7850SOL    HW223729   2.662   1.302   7.612  0.0829 -0.0651  3.6735
 7851SOL     OW23730   3.777   0.922   0.358  0.1375 -0.3812 -0.5462
 7851SOL    HW123731   3.803   1.017   0.345 -1.2946  0.0579 -0.3819
 7851SOL    HW223732   3.685   0.907   0.322 -0.0741 -1.4462  0.3720
 7852SOL     OW23733   3.433   1.517   2.340  0.3289  0.1184  0.4742
 7852SOL    HW123734   3.374   1.598   2.342 -1.0600 -0.7940 -1.0972
 7852SOL    HW223735   3.529   1.546   2.345 -0.1634  1.6961  2.0321
 7853SOL     OW23736   1.422   0.296   8.699 -0.1297 -0.3625 -0.2579
 7853SOL    HW123737   1.377   0.338   8.621  0.0753 -0.1489 -0.2614
 7853SOL    HW223738   1.483   0.223   8.668  0.0025 -0.2334 -0.3051
 7854SOL     OW23739   3.506   1.848   7.010 -0.9030 -0.1551 -0.8196
 7854SOL    HW123740   3.579   1.843   7.079 -2.4107 -1.0413  0.7909
 7854SOL    HW223741   3.530   1.916   6.941  1.0473  0.1687  0.1058
 7855SOL     OW23742   1.338   6.030   6.648 -0.0866 -0.0884 -0.6333
 7855SOL    HW123743   1.413   5.980   6.694 -0.3299 -0.2272 -0.3838
 7855SOL    HW223744   1.310   5.979   6.567  0.7821  0.4816 -1.3170
 7856SOL     OW23745   3.657   1.337   2.139 -0.0516  0.0373 -0.2607
 7856SOL    HW123746   3.673   1.298   2.230 -0.8482  1.0708  0.3442
 7856SOL    HW223747   3.684   1.270   2.069  0.6756 -0.7318  0.7221
 7857SOL     OW23748   3.906   6.536   8.181 -0.0699 -0.7366  0.2430
 7857SOL    HW123749   3.815   6.574   8.166  0.3112  0.7670  1.3896
 7857SOL    HW223750   3.928   6.471   8.109 -1.8023 -0.6739 -0.3810
 7858SOL     OW23751   4.807   2.449   6.741  0.1843 -0.2866  0.1749
 7858SOL    HW123752   4.735   2.380   6.735 -1.6874  1.6612 -3.2471
 7858SOL    HW223753   4.789   2.509   6.819 -1.3336 -0.4495 -0.0169
 7859SOL     OW23754   2.498   1.110   7.958  0.0709 -0.0944  0.1306
 7859SOL    HW123755   2.508   1.052   7.878  0.7228 -0.2256  0.2990
 7859SOL    HW223756   2.497   1.053   8.040 -0.6738  0.0323  0.2129
 7860SOL     OW23757   1.931   1.227   2.567  0.2876 -0.1137  0.2441
 7860SOL    HW123758   1.968   1.152   2.621  0.3674 -0.4466 -0.2661
 7860SOL    HW223759   1.932   1.202   2.470 -0.8167  0.0562  0.1760
 7861SOL     OW23760   5.785   5.179   8.685 -0.4260  0.3271 -0.2676
 7861SOL    HW123761   5.696   5.169   8.730  0.2491 -0.1641  1.0109
 7861SOL    HW223762   5.855   5.132   8.738  0.5296  0.2702 -1.5272
 7862SOL     OW23763   7.915   5.444   6.707  0.5445 -0.1449 -0.3558
 7862SOL    HW123764   7.925   5.347   6.727  2.3050 -0.0131 -0.3931
 7862SOL    HW223765   7.925   5.460   6.609 -1.5382 -0.0814 -0.6052
 7863SOL     OW23766   7.051   4.223   1.662  0.7521 -0.0226 -0.0241
 7863SOL    HW123767   7.074   4.242   1.567 -0.7924 -0.9059 -0.6079
 7863SOL    HW223768   7.037   4.309   1.711 -0.2420  0.4333 -1.0742
 7864SOL     OW23769   2.995   0.248   2.637  0.0006  0.0420 -0.1565
 7864SOL    HW123770   2.985   0.340   2.673  0.7478  0.6363 -1.3924
 7864SOL    HW223771   2.980   0.249   2.538 -1.3554 -1.4179 -0.0100
 7865SOL     OW23772   5.210   5.475   2.275 -0.3285  0.4796 -0.4765
 7865SOL    HW123773   5.169   5.474   2.366  1.1691  1.6627  0.2576
 7865SOL    HW223774   5.236   5.381   2.249 -2.0052 -0.0637 -0.3127
 7866SOL     OW23775   3.592   4.878   0.053 -0.3590  0.3736  0.2760
 7866SOL    HW123776   3.677   4.866   0.003 -0.6895 -0.4323 -0.1062
 7866SOL    HW223777   3.609   4.936   0.134  0.6921 -0.3508  0.5945
 7867SOL     OW23778   6.590   7.086   1.846  0.2172  0.2714  0.2048
 7867SOL    HW123779   6.642   7.021   1.901  0.1840  0.0095 -0.0659
 7867SOL    HW223780   6.619   7.078   1.750 -0.1789  0.2641  0.0837
 7868SOL     OW23781   6.235   5.587   6.731 -0.6302 -0.3585  0.0474
 7868SOL    HW123782   6.289   5.648   6.789  0.0541 -1.7697  0.9612
 7868SOL    HW223783   6.143   5.576   6.770 -1.5306  1.7788 -1.3244
 7869SOL     OW23784   1.690   1.165   2.355 -0.2816 -0.8440 -0.2037
 7869SOL    HW123785   1.786   1.188   2.343 -0.0263 -1.7079  0.1018
 7869SOL    HW223786   1.666   1.170   2.452 -0.0167 -2.5533 -0.0228
 7870SOL     OW23787   8.115   8.453   8.275  0.4997 -0.1289  0.3852
 7870SOL    HW123788   8.088   8.362   8.306 -0.7278 -0.2059 -0.8065
 7870SOL    HW223789   8.070   8.522   8.332 -1.0787 -0.2764 -0.6058
 7871SOL     OW23790   6.071   2.841   2.101  0.3862 -0.4725 -0.1395
 7871SOL    HW123791   6.102   2.757   2.145 -0.2684  0.4685  2.2774
 7871SOL    HW223792   5.975   2.833   2.078 -0.1784  0.1741  1.7712
 7872SOL     OW23793   3.747   3.228   0.261 -0.8134  0.2189 -0.1254
 7872SOL    HW123794   3.807   3.235   0.340 -0.7052 -1.1422 -0.0584
 7872SOL    HW223795   3.797   3.255   0.178  0.3873 -2.1640 -0.2690
 7873SOL     OW23796   5.809   5.966   6.859 -0.3865 -0.4067  0.9638
 7873SOL    HW123797   5.889   5.916   6.826 -0.5483  0.4117 -0.7544
 7873SOL    HW223798   5.826   6.064   6.853 -2.2262 -0.1469 -1.5052
 7874SOL     OW23799   8.120   7.181   2.843 -0.2789  0.2141  0.6077
 7874SOL    HW123800   8.201   7.133   2.878  0.0995 -0.6736 -1.3266
 7874SOL    HW223801   8.149   7.260   2.789 -0.5950 -0.6635 -0.9106
 7875SOL     OW23802   2.301   0.755   4.539  0.2274 -0.2573  0.0623
 7875SOL    HW123803   2.374   0.704   4.494  1.8063  0.0020  2.1754
 7875SOL    HW223804   2.332   0.848   4.559 -0.3710 -0.3605  1.6484
 7876SOL     OW23805   2.156   8.025   3.912  0.4045  0.2963 -0.1351
 7876SOL    HW123806   2.090   8.011   3.985 -1.3017  0.6848 -1.5204
 7876SOL    HW223807   2.243   7.982   3.936 -1.0444 -2.3647  0.7629
 7877SOL     OW23808   8.848   4.221   6.164  0.3249  0.1823 -0.0310
 7877SOL    HW123809   8.819   4.139   6.115  0.2989 -0.4938  1.0866
 7877SOL    HW223810   8.830   4.301   6.108  2.4396 -0.6909 -2.1502
 7878SOL     OW23811   7.708   1.076   4.087 -0.6725  0.0887  0.6780
 7878SOL    HW123812   7.804   1.049   4.084 -0.5455  0.6037  0.0544
 7878SOL    HW223813   7.653   0.998   4.116 -0.1161 -0.3295  0.6319
 7879SOL     OW23814   5.181   2.256   0.869 -0.4176 -0.0323 -0.6935
 7879SOL    HW123815   5.222   2.241   0.959 -1.9017  0.6715  0.1353
 7879SOL    HW223816   5.193   2.352   0.843  1.3891 -0.5447 -2.0144
 7880SOL     OW23817   4.905   5.781   6.224  0.4200 -0.0329  0.0671
 7880SOL    HW123818   4.837   5.843   6.187  0.5406  0.9683  1.4609
 7880SOL    HW223819   4.888   5.688   6.191 -2.9404 -0.2549  2.0423
 7881SOL     OW23820   0.169   5.217   5.824  0.8763  0.2565  0.2174
 7881SOL    HW123821   0.084   5.264   5.845 -0.1509 -0.9149 -1.1957
 7881SOL    HW223822   0.220   5.269   5.755  0.5143  0.1242 -0.1521
 7882SOL     OW23823   2.985   6.979   7.456 -0.0455 -0.3995  0.4101
 7882SOL    HW123824   2.901   6.974   7.511 -0.0748  1.6333  0.6214
 7882SOL    HW223825   3.047   6.906   7.484 -1.1582 -1.0749  1.2272
 7883SOL     OW23826   4.681   5.567   8.628  0.7964 -0.0137  0.5042
 7883SOL    HW123827   4.600   5.621   8.606 -0.1585 -1.1652  1.1420
 7883SOL    HW223828   4.654   5.479   8.666  2.3509 -0.3831  0.8230
 7884SOL     OW23829   7.419   6.676   7.153 -0.0428  0.1231  0.0405
 7884SOL    HW123830   7.390   6.696   7.247  0.5973  1.6485 -0.0546
 7884SOL    HW223831   7.516   6.697   7.143 -0.2946  0.7925 -1.1728
 7885SOL     OW23832   3.215   5.009   7.893  0.2227 -0.3227  0.2074
 7885SOL    HW123833   3.196   5.079   7.962 -2.2478 -1.9726  1.3442
 7885SOL    HW223834   3.169   5.034   7.808  1.5791  0.7034 -0.2570
 7886SOL     OW23835   6.173   4.946   3.293 -0.0754 -0.6631 -0.3390
 7886SOL    HW123836   6.164   4.975   3.388 -0.0513 -1.7442  0.0114
 7886SOL    HW223837   6.263   4.905   3.279 -0.0461 -0.4316 -0.8543
 7887SOL     OW23838   1.871   4.042   6.551  0.5277  0.4134  0.4868
 7887SOL    HW123839   1.933   4.078   6.621  0.4894  1.4761 -0.0024
 7887SOL    HW223840   1.800   4.109   6.531 -0.3125 -0.4621  0.4485
 7888SOL     OW23841   7.466   8.573   7.713  0.4699  0.5881 -0.3950
 7888SOL    HW123842   7.487   8.659   7.667  1.0210  0.4152 -0.4689
 7888SOL    HW223843   7.390   8.587   7.777  0.0066  0.9345 -1.0150
 7889SOL     OW23844   1.397   7.780   7.708  0.3895  0.2369  0.0845
 7889SOL    HW123845   1.354   7.700   7.666  1.0391  0.6093 -1.3364
 7889SOL    HW223846   1.376   7.781   7.806  0.6064 -1.8160  0.1914
 7890SOL     OW23847   5.080   5.936   6.376  0.3087 -0.4306 -0.4056
 7890SOL    HW123848   5.169   5.891   6.382 -0.3238 -1.6486  0.0588
 7890SOL    HW223849   5.013   5.873   6.335 -0.8353 -0.3026  1.1908
 7891SOL     OW23850   3.537   8.737   4.897  0.0230 -0.2898  0.7475
 7891SOL    HW123851   3.461   8.684   4.934 -0.2829 -0.0807  0.4256
 7891SOL    HW223852   3.596   8.678   4.843  0.1717 -0.4835  1.1142
 7892SOL     OW23853   7.628   5.229   8.315  0.2059  0.1804 -0.3853
 7892SOL    HW123854   7.716   5.195   8.282  0.6059  1.0151 -0.2198
 7892SOL    HW223855   7.588   5.163   8.378  0.8740 -0.0659 -0.2096
 7893SOL     OW23856   5.644   3.682   4.950  0.1510 -0.2533  0.1643
 7893SOL    HW123857   5.740   3.665   4.975 -0.0919 -0.4776  0.9641
 7893SOL    HW223858   5.590   3.693   5.033 -0.9112 -2.2234 -0.2086
 7894SOL     OW23859   4.572   8.508   4.878  0.1570 -0.0739  0.7131
 7894SOL    HW123860   4.555   8.606   4.887  2.5644  0.5513 -0.8475
 7894SOL    HW223861   4.647   8.492   4.814 -1.2206 -3.0328 -0.3676
 7895SOL     OW23862   2.551   8.523   6.503  0.4092  0.2953 -0.0848
 7895SOL    HW123863   2.548   8.447   6.438  2.8233  0.2000 -0.1687
 7895SOL    HW223864   2.636   8.574   6.490 -0.4557  2.1111  1.0037
 7896SOL     OW23865   5.885   4.696   6.576 -0.0786 -0.6718  0.2307
 7896SOL    HW123866   5.792   4.673   6.607 -0.1300 -0.0755  0.5301
 7896SOL    HW223867   5.896   4.670   6.481 -0.2491 -1.6197  0.4581
 7897SOL     OW23868   8.607   3.505   1.029  0.2782  0.5822 -0.5643
 7897SOL    HW123869   8.552   3.479   0.949 -1.3193 -0.3899  0.7849
 7897SOL    HW223870   8.550   3.556   1.094  1.2027  0.2934  0.5025
 7898SOL     OW23871   8.069   3.453   3.647  0.1304  0.2430  0.7337
 7898SOL    HW123872   8.112   3.526   3.700  1.7952  1.5872 -2.2663
 7898SOL    HW223873   8.135   3.380   3.631  0.4909  0.9807 -1.4507
 7899SOL     OW23874   4.898   3.147   1.826 -0.2921  0.0594  0.0817
 7899SOL    HW123875   4.961   3.181   1.756 -0.2596 -2.0229 -0.9682
 7899SOL    HW223876   4.926   3.182   1.915  1.7312  0.0591 -0.4903
 7900SOL     OW23877   1.937   8.583   3.289  0.1210 -0.3326 -0.0952
 7900SOL    HW123878   2.008   8.514   3.302  0.0409 -0.4602 -0.3344
 7900SOL    HW223879   1.850   8.539   3.266 -0.2894 -0.2387  1.2028
 7901SOL     OW23880   2.520   6.063   2.067 -0.4992 -0.1332  0.8226
 7901SOL    HW123881   2.474   6.106   1.989 -1.0997 -0.1902  1.1364
 7901SOL    HW223882   2.452   6.014   2.122 -0.1872  0.4497  1.7404
 7902SOL     OW23883   0.703   1.207   2.459  0.0497  0.1803 -0.0740
 7902SOL    HW123884   0.801   1.198   2.439 -0.0453  2.1948 -1.7161
 7902SOL    HW223885   0.688   1.190   2.556  2.0697  0.1584  0.2868
 7903SOL     OW23886   2.281   1.959   1.774 -0.0884  1.0280  0.1268
 7903SOL    HW123887   2.210   1.989   1.837  0.7624 -0.0042  1.6347
 7903SOL    HW223888   2.371   1.980   1.812  0.6106 -3.1504  1.3445
 7904SOL     OW23889   5.260   7.036   0.707  0.0366  0.0471  0.3082
 7904SOL    HW123890   5.207   7.097   0.765 -1.0791 -0.9291  0.3673
 7904SOL    HW223891   5.309   6.970   0.764  0.8766  0.5848  0.2260
 7905SOL     OW23892   8.040   2.742   6.773  0.2877 -0.7974 -0.0954
 7905SOL    HW123893   8.066   2.830   6.813  0.9600 -1.2576  0.4879
 7905SOL    HW223894   7.958   2.755   6.716 -0.4665 -0.0632  1.1127
 7906SOL     OW23895   0.602   5.743   8.460  0.1448 -0.1476 -0.5109
 7906SOL    HW123896   0.562   5.822   8.507  0.1157 -0.1201 -0.5803
 7906SOL    HW223897   0.603   5.760   8.361  1.2001  0.2462 -0.4419
 7907SOL     OW23898   2.187   8.457   8.030  0.6756 -0.1563 -0.5976
 7907SOL    HW123899   2.283   8.437   8.007  0.7179  1.0617 -1.5573
 7907SOL    HW223900   2.178   8.554   8.053 -0.3039 -0.2955 -0.3632
 7908SOL     OW23901   3.832   1.204   3.978  0.2696 -0.4725 -0.2870
 7908SOL    HW123902   3.868   1.114   3.951  1.0578 -0.1403 -0.3575
 7908SOL    HW223903   3.804   1.201   4.074 -0.5239 -1.0369 -0.5236
 7909SOL     OW23904   2.156   6.903   5.801 -0.8763 -0.1387 -0.3820
 7909SOL    HW123905   2.135   7.000   5.805 -1.8537 -0.3935  1.2791
 7909SOL    HW223906   2.178   6.878   5.706 -0.0405  1.7798 -0.7467
 7910SOL     OW23907   3.515   8.162   0.631 -0.2978 -0.2051  0.2324
 7910SOL    HW123908   3.513   8.112   0.544 -0.9412  0.1494  0.0327
 7910SOL    HW223909   3.610   8.180   0.657 -0.0181 -1.9914  0.5915
 7911SOL     OW23910   3.876   5.038   0.975  0.2180  0.0868  0.6815
 7911SOL    HW123911   3.841   4.956   0.930 -0.7321  1.4886 -1.2927
 7911SOL    HW223912   3.962   5.065   0.932 -0.1695  0.8653  0.3827
 7912SOL     OW23913   4.395   0.229   4.198  0.0639 -0.1376  0.0321
 7912SOL    HW123914   4.393   0.232   4.098  3.8002 -0.0415 -0.1866
 7912SOL    HW223915   4.312   0.272   4.234 -0.6571  1.3230 -3.0130
 7913SOL     OW23916   6.572   1.806   2.298 -0.0556 -0.5896  0.3567
 7913SOL    HW123917   6.658   1.776   2.256 -1.2424 -0.7617 -2.0786
 7913SOL    HW223918   6.590   1.833   2.393  3.2754  2.0499 -0.8177
 7914SOL     OW23919   4.872   2.760   2.359 -0.0468 -0.4645  0.1836
 7914SOL    HW123920   4.842   2.737   2.452  1.5251  1.4373  1.2203
 7914SOL    HW223921   4.849   2.855   2.339  3.9992  0.7874  0.6315
 7915SOL     OW23922   0.928   4.468   2.464 -0.1346 -0.3536 -0.2188
 7915SOL    HW123923   0.854   4.432   2.407  0.5744  1.3054 -2.3239
 7915SOL    HW223924   1.016   4.444   2.424  0.3860  0.9680  0.0619
 7916SOL     OW23925   8.123   3.464   1.986  0.8902 -1.1613  0.7360
 7916SOL    HW123926   8.106   3.524   1.909 -0.5912 -1.1814  1.0139
 7916SOL    HW223927   8.137   3.519   2.069  2.9071 -1.1235  0.4197
 7917SOL     OW23928   6.400   7.924   6.751  0.5644  0.5050  0.1402
 7917SOL    HW123929   6.430   7.949   6.660 -3.1518  0.0053 -1.3959
 7917SOL    HW223930   6.330   7.988   6.782  1.1472  0.1742  2.3184
 7918SOL     OW23931   6.933   4.626   3.379  0.2541  0.0656  0.3451
 7918SOL    HW123932   7.017   4.678   3.391  0.7856 -0.8459  0.7313
 7918SOL    HW223933   6.857   4.688   3.360  0.0923  1.4040  4.4283
 7919SOL     OW23934   6.100   7.136   7.556  0.1896  0.2168  0.1534
 7919SOL    HW123935   6.195   7.158   7.579  0.5669 -0.4260 -0.7306
 7919SOL    HW223936   6.040   7.164   7.631  1.4434 -2.7261  2.4507
 7920SOL     OW23937   1.542   6.448   4.927  0.0617  0.5834  0.3804
 7920SOL    HW123938   1.568   6.355   4.952  1.4733  0.4372 -1.3993
 7920SOL    HW223939   1.479   6.485   4.996 -1.3225 -2.0047  0.6438
 7921SOL     OW23940   0.796   5.284   6.282 -0.4583  0.2759  0.2036
 7921SOL    HW123941   0.887   5.312   6.252 -0.0548 -0.8751  0.3110
 7921SOL    HW223942   0.734   5.362   6.276  0.0301  0.5733 -1.8254
 7922SOL     OW23943   5.043   6.578   3.752  0.0554  0.1165 -0.1602
 7922SOL    HW123944   5.128   6.552   3.798 -0.2137  0.1820  0.3818
 7922SOL    HW223945   4.977   6.610   3.819 -0.8136 -1.0446 -0.4189
 7923SOL     OW23946   2.961   7.995   2.029 -0.6075 -0.2517 -1.0265
 7923SOL    HW123947   3.020   8.063   2.074 -1.5442  0.9827 -1.5988
 7923SOL    HW223948   3.014   7.913   2.008  1.1686  1.1877 -2.4246
 7924SOL     OW23949   0.813   6.740   0.126 -0.1686 -0.9111  0.0668
 7924SOL    HW123950   0.729   6.758   0.176 -0.1573 -2.7106  0.8177
 7924SOL    HW223951   0.828   6.812   0.059 -1.7323  0.0073  0.6548
 7925SOL     OW23952   3.578   6.299   7.918 -0.3478 -0.6832  0.5573
 7925SOL    HW123953   3.528   6.227   7.871 -0.6309  0.3091 -0.7271
 7925SOL    HW223954   3.561   6.387   7.873  0.7640  0.0381  1.4685
 7926SOL     OW23955   4.715   0.823   2.262 -0.3820  0.3812  0.1255
 7926SOL    HW123956   4.650   0.799   2.190  0.8178 -1.5189 -0.4131
 7926SOL    HW223957   4.795   0.866   2.222  1.0849 -2.2605 -0.0495
 7927SOL     OW23958   5.764   1.751   1.600  0.8140  0.5903 -0.3518
 7927SOL    HW123959   5.695   1.761   1.672  1.1634  1.3001 -0.0975
 7927SOL    HW223960   5.811   1.839   1.587  0.1659  0.7222 -2.0596
 7928SOL     OW23961   6.270   8.737   6.208  0.0213 -0.1677  0.0329
 7928SOL    HW123962   6.206   8.780   6.144 -0.8349 -1.2304  0.1426
 7928SOL    HW223963   6.327   8.808   6.251  0.0060  0.6362 -1.2350
 7929SOL     OW23964   3.133   1.085   3.326 -0.5655 -0.0662 -0.0784
 7929SOL    HW123965   3.224   1.127   3.334 -0.6807  0.1034  0.3443
 7929SOL    HW223966   3.088   1.085   3.415  0.7525 -4.1607  0.8050
 7930SOL     OW23967   2.023   2.367   0.441 -0.4726  1.0391 -0.4439
 7930SOL    HW123968   2.075   2.452   0.440 -1.2812  1.5890  1.0728
 7930SOL    HW223969   2.078   2.295   0.482 -0.3158  1.2078 -0.3536
 7931SOL     OW23970   7.157   1.768   4.609  0.2540 -0.3436 -0.3820
 7931SOL    HW123971   7.092   1.721   4.669 -2.3885 -0.0764 -2.8454
 7931SOL    HW223972   7.183   1.855   4.650  2.4951 -2.2061  2.6024
 7932SOL     OW23973   4.240   6.018   8.449 -0.0373  0.1144  0.6134
 7932SOL    HW123974   4.270   6.103   8.406  0.6931 -1.4349 -2.1599
 7932SOL    HW223975   4.317   5.977   8.498  2.7534 -3.2397 -5.4737
 7933SOL     OW23976   7.352   4.921   3.101  0.3030  0.0076  0.2052
 7933SOL    HW123977   7.325   4.911   3.005  1.5359  1.2427 -0.3259
 7933SOL    HW223978   7.441   4.877   3.114  1.4117  2.0670  0.0688
 7934SOL     OW23979   4.917   3.889   5.440  0.1053  0.0203 -0.0347
 7934SOL    HW123980   4.925   3.815   5.507  0.3704  0.8684  0.8986
 7934SOL    HW223981   4.908   3.976   5.488 -0.0936  0.6111 -1.1163
 7935SOL     OW23982   1.556   3.055   3.275 -0.3830  0.5328 -0.4178
 7935SOL    HW123983   1.544   3.109   3.192 -1.1428  1.0868  0.0447
 7935SOL    HW223984   1.509   3.099   3.351 -1.8364 -1.2425 -0.2307
 7936SOL     OW23985   2.963   6.559   6.933 -0.2580  0.1331 -0.1601
 7936SOL    HW123986   2.920   6.641   6.896  0.5237  1.1711  1.1546
 7936SOL    HW223987   2.932   6.544   7.026  0.7332 -0.1988  0.1315
 7937SOL     OW23988   3.362   3.792   2.839  0.3515 -0.7236 -0.4811
 7937SOL    HW123989   3.449   3.746   2.856 -0.2132 -1.7465 -0.3158
 7937SOL    HW223990   3.354   3.813   2.741 -0.2127 -2.7315 -0.9023
 7938SOL     OW23991   5.240   0.586   8.449 -0.5766 -0.5709 -0.3332
 7938SOL    HW123992   5.326   0.535   8.458 -0.4638 -0.4294 -0.5970
 7938SOL    HW223993   5.199   0.568   8.359  0.0480  0.6818 -0.9026
 7939SOL     OW23994   4.067   3.437   1.824  0.1962  0.0783  0.4601
 7939SOL    HW123995   4.070   3.405   1.919 -1.5127  0.1502  0.5677
 7939SOL    HW223996   4.041   3.534   1.823 -1.4548 -0.3446 -0.1210
 7940SOL     OW23997   7.453   3.565   5.620  0.3139  0.2370 -0.1086
 7940SOL    HW123998   7.525   3.627   5.588 -0.3688  0.9683 -0.2541
 7940SOL    HW223999   7.448   3.568   5.720 -0.5815  1.4252 -0.1729
 7941SOL     OW24000   5.296   1.871   0.786  0.3922 -0.3217  0.0134
 7941SOL    HW124001   5.211   1.901   0.742 -0.6314  0.0214  2.1117
 7941SOL    HW224002   5.373   1.921   0.746 -0.3465 -0.6406 -1.9405
 7942SOL     OW24003   6.980   7.441   7.997  0.3753  0.1871  0.8937
 7942SOL    HW124004   6.893   7.409   8.033 -0.1331 -2.2692 -2.1116
 7942SOL    HW224005   7.054   7.384   8.033  0.2088 -0.3845  0.3576
 7943SOL     OW24006   3.415   0.714   3.955  0.7336  0.2443  0.2810
 7943SOL    HW124007   3.445   0.694   4.048 -0.5091 -0.8585  0.4812
 7943SOL    HW224008   3.329   0.765   3.958  1.5595  1.7166 -0.2771
 7944SOL     OW24009   7.627   1.400   7.574  0.6592 -0.2302  0.2478
 7944SOL    HW124010   7.574   1.400   7.658 -0.4785 -1.2078 -0.4357
 7944SOL    HW224011   7.650   1.493   7.548 -0.5532  0.1926  0.6596
 7945SOL     OW24012   8.742   3.668   5.260 -0.4388  0.7769  0.7064
 7945SOL    HW124013   8.700   3.641   5.346 -0.6496 -1.3699 -0.0031
 7945SOL    HW224014   8.727   3.596   5.192  0.8218  1.8384 -0.7624
 7946SOL     OW24015   7.597   1.362   2.224 -0.8926  0.5128 -0.0447
 7946SOL    HW124016   7.622   1.324   2.135  2.9628  0.7428  0.7650
 7946SOL    HW224017   7.560   1.454   2.213  0.4236  0.9106 -1.4092
 7947SOL     OW24018   8.320   0.964   3.774 -0.2247  0.3415  0.2504
 7947SOL    HW124019   8.285   0.872   3.752  0.0226  0.1690  0.5646
 7947SOL    HW224020   8.418   0.958   3.793 -0.0141  0.8248 -0.6540
 7948SOL     OW24021   5.723   0.013   0.688  0.2791  0.2438  0.0411
 7948SOL    HW124022   5.703   0.102   0.728  0.3464  0.0762  0.4493
 7948SOL    HW224023   5.761   0.025   0.596  2.3780  0.7281  0.9306
 7949SOL     OW24024   3.138   1.028   3.050  0.0142  0.3710  0.1334
 7949SOL    HW124025   3.187   1.101   3.003 -0.4829  0.3829 -0.3772
 7949SOL    HW224026   3.149   1.039   3.149 -0.5719  1.5195  0.0863
 7950SOL     OW24027   7.899   7.627   3.718  0.2653 -0.5714 -0.1079
 7950SOL    HW124028   7.867   7.545   3.765 -0.3744 -0.6274 -0.6421
 7950SOL    HW224029   7.846   7.642   3.635 -0.0798  0.7442  0.3118
 7951SOL     OW24030   8.365   5.682   3.111  0.2745 -0.2180 -0.5594
 7951SOL    HW124031   8.345   5.777   3.136 -0.8861 -0.6164  0.0785
 7951SOL    HW224032   8.431   5.643   3.175 -1.3982 -0.7037  0.9223
 7952SOL     OW24033   1.353   7.788   3.654 -0.4426  0.0747  0.1199
 7952SOL    HW124034   1.450   7.798   3.633 -0.1801 -1.6871  0.3934
 7952SOL    HW224035   1.336   7.815   3.748 -0.1626  0.0334  0.1815
 7953SOL     OW24036   0.946   5.124   0.535 -0.2493  0.1284 -0.1090
 7953SOL    HW124037   0.909   5.033   0.520  0.0543  0.0095 -0.1383
 7953SOL    HW224038   0.942   5.146   0.633  0.7512 -0.3839  0.0588
 7954SOL     OW24039   3.346   0.128   3.821  0.4115  0.3777  0.0366
 7954SOL    HW124040   3.352   0.030   3.841  0.8816  0.6581  1.4217
 7954SOL    HW224041   3.260   0.147   3.775  0.9031 -0.8663 -1.4947
 7955SOL     OW24042   6.804   3.082   0.371  0.2166 -0.0393 -0.2145
 7955SOL    HW124043   6.731   3.028   0.329  0.7770 -0.0345 -1.2368
 7955SOL    HW224044   6.808   3.173   0.329 -1.0448  1.0380  1.8344
 7956SOL     OW24045   4.707   4.287   8.433  0.3180 -0.1824  0.6266
 7956SOL    HW124046   4.614   4.303   8.466 -0.0391  0.7914 -0.7473
 7956SOL    HW224047   4.710   4.300   8.334  1.9937  0.1759  0.6909
 7957SOL     OW24048   7.273   2.935   7.984 -0.2161 -0.6352 -0.0266
 7957SOL    HW124049   7.186   2.953   8.030 -1.0608 -2.6833 -0.7071
 7957SOL    HW224050   7.259   2.934   7.885  0.9138  0.4641 -0.2287
 7958SOL     OW24051   2.817   1.057   2.553 -0.0184  0.8043 -0.4404
 7958SOL    HW124052   2.817   1.157   2.547 -1.1693  0.7269 -2.5600
 7958SOL    HW224053   2.815   1.018   2.461  1.7232 -1.2253  0.2894
 7959SOL     OW24054   3.309   0.314   6.919 -0.2828 -0.4330 -0.0584
 7959SOL    HW124055   3.381   0.329   6.852 -0.6090 -0.8471 -0.5221
 7959SOL    HW224056   3.285   0.400   6.964  1.1669 -0.4607  0.8137
 7960SOL     OW24057   2.223   4.519   4.734  0.3585  0.3476  0.4387
 7960SOL    HW124058   2.303   4.542   4.679 -0.3744 -0.0843 -0.8408
 7960SOL    HW224059   2.164   4.457   4.683 -0.8530  0.7363  1.3193
 7961SOL     OW24060   5.758   6.606   2.425 -0.0665  0.1816  0.3248
 7961SOL    HW124061   5.787   6.614   2.521  2.2167 -1.1037 -0.1665
 7961SOL    HW224062   5.706   6.687   2.399  2.4777  2.4090  1.6210
 7962SOL     OW24063   4.315   8.782   3.322  0.0595 -0.0448 -0.2186
 7962SOL    HW124064   4.234   8.813   3.372 -0.2116 -0.0035 -0.6770
 7962SOL    HW224065   4.384   8.751   3.387 -0.2047  0.2103  0.1883
 7963SOL     OW24066   5.417   8.385   2.814  0.2867  0.4782  0.1779
 7963SOL    HW124067   5.372   8.373   2.903  0.8849  0.2862  0.4550
 7963SOL    HW224068   5.349   8.372   2.741 -0.5528  2.1266  0.6235
 7964SOL     OW24069   2.342   7.797   7.100  0.2807 -0.4072 -0.2470
 7964SOL    HW124070   2.373   7.711   7.140  4.2410 -0.1113 -2.1728
 7964SOL    HW224071   2.293   7.778   7.014  1.8035 -0.8137 -1.0622
 7965SOL     OW24072   3.915   7.095   2.161  0.4289  0.2919  0.0946
 7965SOL    HW124073   3.959   7.006   2.172  0.3909 -0.0556 -2.2457
 7965SOL    HW224074   3.984   7.167   2.161  0.6495  0.0786 -0.0805
 7966SOL     OW24075   1.909   5.022   7.285 -0.5670  0.4212 -0.4744
 7966SOL    HW124076   1.997   4.989   7.251 -0.6268  1.1972 -1.4181
 7966SOL    HW224077   1.871   4.956   7.349  0.4591 -0.1665 -0.4533
 7967SOL     OW24078   8.636   4.010   2.060 -0.2762  0.0693 -0.1168
 7967SOL    HW124079   8.660   4.085   2.122 -0.8038 -0.1676  0.3902
 7967SOL    HW224080   8.549   4.029   2.016  0.5313  0.6694 -1.5285
 7968SOL     OW24081   7.568   6.629   0.207 -0.2402  0.4851 -0.0186
 7968SOL    HW124082   7.665   6.605   0.212 -0.5170 -0.7852 -0.4198
 7968SOL    HW224083   7.548   6.699   0.276  0.9532  0.7592  0.0776
 7969SOL     OW24084   2.230   1.940   2.417 -0.3623  0.0081 -0.0926
 7969SOL    HW124085   2.132   1.929   2.431 -0.0372 -2.5579  0.7590
 7969SOL    HW224086   2.258   1.891   2.334  0.2663  0.2205 -0.0114
 7970SOL     OW24087   8.048   7.164   8.352  0.1267  0.4998  0.2139
 7970SOL    HW124088   8.104   7.082   8.340 -1.0279 -0.1224 -1.3725
 7970SOL    HW224089   7.953   7.143   8.327 -0.8670  1.5318  2.7618
 7971SOL     OW24090   8.533   5.452   8.159  0.6612 -0.1548 -0.2056
 7971SOL    HW124091   8.616   5.504   8.180 -0.3504  2.0349 -1.2879
 7971SOL    HW224092   8.470   5.457   8.236  0.8515 -0.3938 -0.0332
 7972SOL     OW24093   7.765   8.634   3.090 -0.0297  0.2503 -0.4450
 7972SOL    HW124094   7.699   8.577   3.138  1.5732 -0.6627  0.8196
 7972SOL    HW224095   7.835   8.664   3.155  2.1519 -0.8559 -2.1408
 7973SOL     OW24096   4.672   1.801   3.101 -0.2715  0.3313 -0.2327
 7973SOL    HW124097   4.746   1.736   3.117 -0.2486 -0.3242 -2.5594
 7973SOL    HW224098   4.597   1.784   3.166  0.9068 -0.1030  1.0487
 7974SOL     OW24099   3.173   5.974   8.457 -0.6740  0.3873 -0.6289
 7974SOL    HW124100   3.206   6.026   8.536 -1.8784  0.7551 -0.3407
 7974SOL    HW224101   3.144   5.883   8.486 -1.0411  0.4931 -0.6597
 7975SOL     OW24102   2.237   8.694   2.534 -0.0511 -0.3083  0.1594
 7975SOL    HW124103   2.262   8.758   2.606  0.2492 -0.5945  0.3153
 7975SOL    HW224104   2.315   8.680   2.474 -0.4405  0.2829 -0.4979
 7976SOL     OW24105   4.269   3.860   4.274 -0.0420  0.2647  0.2114
 7976SOL    HW124106   4.360   3.897   4.252  0.8569 -1.3681  0.9752
 7976SOL    HW224107   4.277   3.762   4.292 -1.3278  0.6529  3.6239
 7977SOL     OW24108   1.552   1.697   6.876 -0.3737  0.2759  0.2307
 7977SOL    HW124109   1.636   1.722   6.925 -0.4532 -0.6587  0.8679
 7977SOL    HW224110   1.482   1.766   6.892 -0.1325  0.4001  0.7532
 7978SOL     OW24111   4.708   5.681   2.490  0.9200  0.6706  0.2861
 7978SOL    HW124112   4.757   5.758   2.450  0.0845  1.2048  0.2652
 7978SOL    HW224113   4.721   5.681   2.589  2.8419 -0.5480  0.0789
 7979SOL     OW24114   1.372   0.924   3.323  0.3011 -0.1590 -0.6329
 7979SOL    HW124115   1.456   0.963   3.284 -0.0502 -0.4044 -1.6899
 7979SOL    HW224116   1.331   0.862   3.256 -1.2691  0.7477 -0.5666
 7980SOL     OW24117   1.536   4.901   0.263 -0.4227  0.0460  0.2440
 7980SOL    HW124118   1.516   4.989   0.219 -0.3000 -0.4632 -0.8783
 7980SOL    HW224119   1.544   4.914   0.362 -0.0868  1.3502  0.0657
 7981SOL     OW24120   3.048   1.330   1.795  0.4002  0.2173  0.1451
 7981SOL    HW124121   2.985   1.258   1.767  0.5513  0.4796 -0.9135
 7981SOL    HW224122   3.112   1.294   1.863  0.9228 -0.8778 -0.8845
 7982SOL     OW24123   1.545   7.886   6.070  0.4836  0.3073 -0.0662
 7982SOL    HW124124   1.575   7.971   6.113  0.7357 -0.3009  0.9709
 7982SOL    HW224125   1.472   7.844   6.124  3.1053 -2.2362  1.7880
 7983SOL     OW24126   2.369   1.082   1.559  0.2390  0.7212 -0.2932
 7983SOL    HW124127   2.378   1.181   1.568 -1.0616  0.7992  0.3783
 7983SOL    HW224128   2.428   1.037   1.627 -1.3862  1.1256  1.4800
 7984SOL     OW24129   7.895   5.709   2.799  0.0205  0.6671  0.6629
 7984SOL    HW124130   7.898   5.621   2.752  0.2993  0.5891  0.8258
 7984SOL    HW224131   7.938   5.700   2.889  2.2243  1.5637 -0.2571
 7985SOL     OW24132   7.421   7.399   7.204  0.4684  0.7080  0.8227
 7985SOL    HW124133   7.487   7.398   7.278  1.7138  1.1061 -0.2395
 7985SOL    HW224134   7.463   7.436   7.121 -1.0303  0.7923  0.0461
 7986SOL     OW24135   1.766   7.888   3.280  0.1756  0.1985  0.1123
 7986SOL    HW124136   1.800   7.798   3.307 -2.6344 -1.2086 -0.6583
 7986SOL    HW224137   1.819   7.959   3.327  2.2749 -1.8217  0.9940
 7987SOL     OW24138   5.425   0.752   5.660  0.2878  0.0526  0.3996
 7987SOL    HW124139   5.479   0.812   5.718  1.8974  0.0126 -1.0174
 7987SOL    HW224140   5.369   0.806   5.598  0.4549  0.0852  0.2781
 7988SOL     OW24141   5.016   8.431   6.510 -0.0100 -0.4314  0.0299
 7988SOL    HW124142   5.066   8.459   6.592 -2.0379  0.3425  1.0856
 7988SOL    HW224143   4.967   8.346   6.528 -1.4026  0.3411  0.0723
 7989SOL     OW24144   6.470   4.472   3.481  0.4778 -0.1651  0.4987
 7989SOL    HW124145   6.554   4.499   3.434 -0.7476  1.2126 -0.9885
 7989SOL    HW224146   6.455   4.374   3.468  0.9748 -0.0979 -0.6960
 7990SOL     OW24147   5.825   2.414   1.916 -0.9110 -0.5929 -0.0026
 7990SOL    HW124148   5.900   2.427   1.981 -0.8747  0.2365 -0.2045
 7990SOL    HW224149   5.860   2.424   1.823 -1.3457  0.1777 -0.0872
 7991SOL     OW24150   6.127   5.615   0.909  0.0798  0.4560 -0.0123
 7991SOL    HW124151   6.186   5.566   0.973 -0.5996 -1.6651 -0.9252
 7991SOL    HW224152   6.183   5.670   0.847  1.1159 -1.2006 -0.6064
 7992SOL     OW24153   2.428   5.854   6.041 -0.4864  0.0106 -0.0632
 7992SOL    HW124154   2.371   5.823   5.965  1.0293  2.1593 -2.2169
 7992SOL    HW224155   2.370   5.892   6.113 -1.8672  0.4578 -1.3663
 7993SOL     OW24156   3.999   2.002   4.720  0.2395 -0.2747  0.5492
 7993SOL    HW124157   3.932   2.072   4.743 -1.6642 -1.1627 -1.7812
 7993SOL    HW224158   4.082   2.045   4.684 -0.1319  0.7888  0.9357
 7994SOL     OW24159   7.770   3.149   7.334 -0.0566  0.5101 -0.2033
 7994SOL    HW124160   7.807   3.065   7.374  0.3356  1.0780  0.6504
 7994SOL    HW224161   7.811   3.164   7.244 -2.4472 -1.8758 -1.8476
 7995SOL     OW24162   6.312   4.576   6.614  0.3096  0.9101  0.3953
 7995SOL    HW124163   6.344   4.642   6.545  0.9432  3.1653  2.7007
 7995SOL    HW224164   6.391   4.531   6.656 -0.0299  0.2019  0.2835
 7996SOL     OW24165   5.036   0.986   7.132  0.5540  0.0576  0.0760
 7996SOL    HW124166   5.005   0.893   7.147  0.1260  0.3854  1.4036
 7996SOL    HW224167   5.108   0.987   7.063  1.2726 -1.3904  0.7589
 7997SOL     OW24168   0.000   7.499   1.155 -0.2186 -0.0931 -0.3394
 7997SOL    HW124169  -0.070   7.472   1.088 -0.0896  0.1692 -0.5821
 7997SOL    HW224170   0.045   7.417   1.191 -0.5083 -0.2506 -0.3395
 7998SOL     OW24171   7.766   4.168   5.724  0.9499 -0.3784 -0.1163
 7998SOL    HW124172   7.807   4.217   5.647  0.7363  1.4095  0.8404
 7998SOL    HW224173   7.766   4.228   5.805 -0.3799 -1.5823  0.8237
 7999SOL     OW24174   1.762   8.757   5.019 -0.8922 -0.7851  0.4720
 7999SOL    HW124175   1.806   8.844   5.038  0.2832 -1.0663 -0.8124
 7999SOL    HW224176   1.665   8.772   4.999 -0.4546  0.3896 -0.9065
 8000SOL     OW24177   7.610   2.020   8.795  0.0823 -0.3324 -0.0954
 8000SOL    HW124178   7.675   2.042   8.722  2.0969  2.4744  2.3334
 8000SOL    HW224179   7.653   1.958   8.861 -0.7886 -0.7566  0.1022
 8001SOL     OW24180   5.866   5.905   0.974 -0.0573 -0.0337 -0.1292
 8001SOL    HW124181   5.867   5.827   0.912  0.0371 -0.1760  0.0529
 8001SOL    HW224182   5.772   5.937   0.985 -0.1807 -0.5403  0.3214
 8002SOL     OW24183   2.409   5.192   0.264 -0.1077 -0.5233  0.0084
 8002SOL    HW124184   2.323   5.142   0.281 -1.0046  1.5096  1.9133
 8002SOL    HW224185   2.483   5.148   0.315 -1.0553  0.4724  2.3721
 8003SOL     OW24186   6.844   3.397   5.098  0.3355 -0.4091 -0.1655
 8003SOL    HW124187   6.808   3.328   5.160 -0.1316 -0.2750 -0.2803
 8003SOL    HW224188   6.870   3.354   5.011  0.8213 -0.5669  0.0531
 8004SOL     OW24189   7.579   2.259   4.384  0.1625 -0.0868  0.1739
 8004SOL    HW124190   7.642   2.298   4.451  2.6429 -1.2051 -1.3577
 8004SOL    HW224191   7.532   2.180   4.425 -0.1008  0.6103  1.2686
 8005SOL     OW24192   0.728   1.176   0.835 -0.2674  0.0630 -0.5101
 8005SOL    HW124193   0.640   1.195   0.878  0.9113  1.8609  1.3142
 8005SOL    HW224194   0.750   1.079   0.844 -1.5320 -0.1904 -0.0008
 8006SOL     OW24195   4.953   2.805   6.530 -0.0247  0.0405 -0.0825
 8006SOL    HW124196   4.994   2.718   6.556 -0.7651  0.0011  1.0847
 8006SOL    HW224197   5.004   2.847   6.455 -0.6160 -2.1675 -1.8095
 8007SOL     OW24198   3.629   3.239   5.083  0.2436 -0.3856 -0.3786
 8007SOL    HW124199   3.729   3.250   5.076  0.3688 -2.0057 -2.2261
 8007SOL    HW224200   3.586   3.285   5.006 -0.5066  0.7489  0.7003
 8008SOL     OW24201   6.226   1.292   5.932 -0.2444 -0.3217 -0.8381
 8008SOL    HW124202   6.218   1.292   6.032  1.6277 -2.1424 -0.6180
 8008SOL    HW224203   6.137   1.277   5.891 -0.7685 -1.5437  0.6479
 8009SOL     OW24204   1.848   1.857   6.473  0.3586 -0.0238 -0.1520
 8009SOL    HW124205   1.767   1.834   6.418  1.1330 -2.4319 -0.4153
 8009SOL    HW224206   1.907   1.919   6.422 -0.8950  1.1066 -0.2840
 8010SOL     OW24207   5.975   0.789   8.570  0.2097 -0.6662  0.1102
 8010SOL    HW124208   5.966   0.703   8.620  0.6268  0.4580  2.2614
 8010SOL    HW224209   6.064   0.831   8.592  0.3810 -0.0827 -1.5674
 8011SOL     OW24210   4.490   7.801   0.824 -0.2467  0.4745  0.6994
 8011SOL    HW124211   4.530   7.735   0.887  0.8925  0.3853 -0.0868
 8011SOL    HW224212   4.391   7.802   0.835 -0.2942 -1.3856  0.7135
 8012SOL     OW24213   4.069   1.286   5.858 -0.2056 -0.0499  0.7048
 8012SOL    HW124214   3.982   1.333   5.872 -0.2985 -0.7221  2.7804
 8012SOL    HW224215   4.114   1.273   5.946  1.2596 -1.1121 -0.1541
 8013SOL     OW24216   2.394   7.843   1.403 -0.0544  0.1146 -0.0817
 8013SOL    HW124217   2.310   7.889   1.432 -0.0963  0.1572 -0.2658
 8013SOL    HW224218   2.385   7.813   1.308  0.1509  0.1476 -0.1133
 8014SOL     OW24219   7.628   1.616   2.741 -0.0202  0.1005 -0.5238
 8014SOL    HW124220   7.687   1.559   2.797  2.3545  0.2212 -2.6781
 8014SOL    HW224221   7.621   1.576   2.649 -2.9048  0.4242 -0.5341
 8015SOL     OW24222   1.912   2.436   8.589 -0.4715 -0.2039  0.6915
 8015SOL    HW124223   1.934   2.422   8.492 -0.5746 -0.3291  0.6861
 8015SOL    HW224224   1.873   2.528   8.601  1.7238  0.7446  0.9788
 8016SOL     OW24225   8.831   0.936   3.665 -0.0452  0.3594  0.0697
 8016SOL    HW124226   8.880   0.875   3.602  1.9506  0.0212  1.8334
 8016SOL    HW224227   8.810   1.022   3.618  0.0208 -0.4476 -1.4950
 8017SOL     OW24228   4.757   0.652   5.150  0.2437  0.4428 -0.5423
 8017SOL    HW124229   4.843   0.617   5.186  0.5051  1.4091 -0.1999
 8017SOL    HW224230   4.775   0.719   5.078 -0.2516 -2.7199 -3.9230
 8018SOL     OW24231   7.703   7.946   6.774  0.4171  0.3226  0.3530
 8018SOL    HW124232   7.707   8.029   6.718  0.8947  0.0177 -0.0745
 8018SOL    HW224233   7.707   7.866   6.715 -0.3169 -0.0125  0.7473
 8019SOL     OW24234   5.326   3.350   0.813 -0.4755  0.6048 -0.0856
 8019SOL    HW124235   5.230   3.332   0.790 -0.3538 -1.4190  0.7462
 8019SOL    HW224236   5.351   3.442   0.783 -2.9187  1.5331  0.4643
 8020SOL     OW24237   0.104   1.081   6.867  0.0665 -0.5753  0.8770
 8020SOL    HW124238   0.155   1.166   6.870 -3.6568  2.0390 -1.6451
 8020SOL    HW224239   0.037   1.079   6.941 -1.7260  0.1545 -0.6453
 8021SOL     OW24240   0.685   4.604   0.506 -0.3726 -0.1426 -0.3776
 8021SOL    HW124241   0.731   4.516   0.497  0.5611  0.3333 -0.3700
 8021SOL    HW224242   0.651   4.632   0.416 -0.0846 -0.2035 -0.5089
 8022SOL     OW24243   1.254   4.616   6.713  0.2949 -0.4934  0.1616
 8022SOL    HW124244   1.316   4.682   6.756 -0.0815  0.1630 -0.2956
 8022SOL    HW224245   1.279   4.524   6.742  2.9532 -0.4931 -1.7221
 8023SOL     OW24246   8.170   0.412   1.366 -0.6254 -0.1363  0.6490
 8023SOL    HW124247   8.205   0.431   1.457 -0.6343  0.6124  0.4961
 8023SOL    HW224248   8.244   0.417   1.299 -0.9950  1.4613  0.3227
 8024SOL     OW24249   3.578   4.858   1.549 -0.1188 -0.1435  0.0021
 8024SOL    HW124250   3.571   4.766   1.588 -2.0281 -0.4313 -0.8683
 8024SOL    HW224251   3.605   4.923   1.620 -2.1431 -0.8595  1.5293
 8025SOL     OW24252   0.125   3.624   8.065  0.0316 -0.2383  0.1660
 8025SOL    HW124253   0.174   3.696   8.017 -0.4773  0.0011  0.0013
 8025SOL    HW224254   0.027   3.634   8.049 -0.0003 -1.3894 -0.4527
 8026SOL     OW24255   6.518   7.646   7.543  0.4649 -0.6041  0.2717
 8026SOL    HW124256   6.429   7.611   7.515  0.2888 -0.7118  0.9478
 8026SOL    HW224257   6.578   7.652   7.463 -0.3378  0.0623 -0.2922
 8027SOL     OW24258   7.684   4.384   5.197 -0.2971 -0.0171  0.3220
 8027SOL    HW124259   7.590   4.353   5.181  0.3273 -1.5829 -0.5698
 8027SOL    HW224260   7.744   4.346   5.126  0.8516  1.8580  0.2224
 8028SOL     OW24261   1.048   0.685   6.323  0.2410 -0.4551 -0.0774
 8028SOL    HW124262   1.001   0.648   6.403  1.5837  0.0795  1.0095
 8028SOL    HW224263   1.101   0.612   6.279  1.4141 -0.2865  0.9782
 8029SOL     OW24264   3.798   3.565   7.444 -0.3224  0.3969 -0.3062
 8029SOL    HW124265   3.748   3.624   7.381 -0.2463 -0.0002 -0.7383
 8029SOL    HW224266   3.733   3.516   7.503 -0.4765 -0.5262 -1.2256
 8030SOL     OW24267   6.357   6.854   7.707 -0.1288 -0.0252 -0.7968
 8030SOL    HW124268   6.453   6.872   7.727 -0.1454 -0.6048 -0.1571
 8030SOL    HW224269   6.351   6.794   7.626  0.1480 -1.5807  0.2890
 8031SOL     OW24270   5.411   2.601   4.251 -0.2638 -0.3795  0.3243
 8031SOL    HW124271   5.468   2.681   4.265 -4.2729  3.2627 -1.6462
 8031SOL    HW224272   5.371   2.572   4.338  1.0112 -0.0826  1.0261
 8032SOL     OW24273   6.378   6.835   5.986  0.0936  0.0807  0.3682
 8032SOL    HW124274   6.306   6.828   5.917  1.1947 -1.8243 -0.6767
 8032SOL    HW224275   6.467   6.842   5.940  0.8174 -0.7702  1.5858
 8033SOL     OW24276   7.334   1.388   6.368  0.1220 -0.2105 -0.0911
 8033SOL    HW124277   7.413   1.388   6.307  0.5869 -1.2194  0.5023
 8033SOL    HW224278   7.295   1.480   6.372 -0.0437 -0.1531 -2.0704
 8034SOL     OW24279   3.550   2.399   2.197  0.0348  0.4780 -0.8368
 8034SOL    HW124280   3.620   2.412   2.267  0.8123  1.1434 -1.7135
 8034SOL    HW224281   3.472   2.458   2.217 -0.4124 -0.4660  0.2914
 8035SOL     OW24282   0.034   0.034   1.612  0.2859 -0.1014 -0.2651
 8035SOL    HW124283  -0.017   0.078   1.538  1.3834  1.6869 -0.0017
 8035SOL    HW224284   0.115  -0.011   1.574  0.0329 -0.5028 -0.3328
 8036SOL     OW24285   3.227   5.235   7.310 -0.1246  0.0481 -0.1675
 8036SOL    HW124286   3.286   5.315   7.318 -0.6681  0.7769 -2.4550
 8036SOL    HW224287   3.282   5.156   7.281  0.3540 -0.3565  1.7479
 8037SOL     OW24288   1.398   2.577   3.701 -0.0645 -0.4365  0.3451
 8037SOL    HW124289   1.370   2.539   3.789 -1.0192 -3.1688 -1.0324
 8037SOL    HW224290   1.318   2.606   3.649  0.4100  0.1362 -0.0968
 8038SOL     OW24291   5.601   6.023   8.496 -0.6597 -0.0129 -0.0076
 8038SOL    HW124292   5.566   6.090   8.561 -0.3889  0.9207 -0.8063
 8038SOL    HW224293   5.625   6.068   8.411  2.4417 -0.5894  0.4541
 8039SOL     OW24294   1.917   8.411   3.014 -0.1221  0.3547 -0.2524
 8039SOL    HW124295   1.917   8.312   3.003  2.9767  0.3327 -0.9745
 8039SOL    HW224296   1.823   8.444   3.022 -1.3158 -2.4575 -1.4615
 8040SOL     OW24297   2.327   5.467   3.808 -0.1448  0.2081 -0.0698
 8040SOL    HW124298   2.331   5.421   3.720  1.1345  0.2366 -0.0516
 8040SOL    HW224299   2.419   5.500   3.833 -0.4922  0.2727  1.2227
 8041SOL     OW24300   1.402   0.792   4.744  0.1480 -0.5345  0.9051
 8041SOL    HW124301   1.462   0.751   4.675 -0.7521 -1.1730  0.4853
 8041SOL    HW224302   1.423   0.889   4.753  0.1918 -0.4096 -0.3681
 8042SOL     OW24303   5.475   6.666   2.063  0.1773 -0.0610 -0.0385
 8042SOL    HW124304   5.379   6.666   2.093  0.4107  0.7667  0.7410
 8042SOL    HW224305   5.519   6.581   2.092  0.7905  1.2593  3.4065
 8043SOL     OW24306   0.718   0.138   6.955 -0.8019  0.4786 -0.1461
 8043SOL    HW124307   0.748   0.043   6.960 -0.9804  0.2892 -1.8933
 8043SOL    HW224308   0.790   0.198   6.992  0.0942 -0.2207 -0.7007
 8044SOL     OW24309   4.974   8.126   7.850 -0.3061  0.1071  0.7191
 8044SOL    HW124310   5.071   8.134   7.872 -0.6007  0.8911  1.8338
 8044SOL    HW224311   4.931   8.060   7.912 -0.6641  0.4992  0.9005
 8045SOL     OW24312   5.303   3.427   8.224 -0.3806 -0.7344 -0.1052
 8045SOL    HW124313   5.347   3.337   8.217 -0.5382 -0.8609  0.5179
 8045SOL    HW224314   5.226   3.431   8.161 -1.6373 -1.7781  1.2913
 8046SOL     OW24315   4.903   3.735   0.820  0.2590 -0.1930 -0.2783
 8046SOL    HW124316   4.876   3.827   0.792 -0.7602 -0.3697  0.0589
 8046SOL    HW224317   5.002   3.730   0.827  0.5036  0.1749 -2.7023
 8047SOL     OW24318   4.631   7.479   1.526  0.2295  0.7723 -0.2902
 8047SOL    HW124319   4.687   7.500   1.606  1.0652 -0.0923 -0.6358
 8047SOL    HW224320   4.621   7.561   1.470  0.1162  1.2378  0.3969
 8048SOL     OW24321   0.299   3.953   5.834  0.2568  0.3334 -0.3450
 8048SOL    HW124322   0.297   3.874   5.773 -1.8214  0.3780 -0.4146
 8048SOL    HW224323   0.264   4.033   5.786 -1.0145  0.4650  0.7154
 8049SOL     OW24324   4.525   0.096   1.685  0.4211  0.0411 -0.1181
 8049SOL    HW124325   4.614   0.089   1.640  0.5119  0.8030 -0.0753
 8049SOL    HW224326   4.537   0.087   1.784  0.4633  0.1923 -0.1083
 8050SOL     OW24327   1.611   5.770   6.295  0.3370 -0.3617 -0.4748
 8050SOL    HW124328   1.640   5.690   6.242  0.3481 -0.3748 -0.4487
 8050SOL    HW224329   1.592   5.742   6.389 -0.7135 -0.5499 -0.7251
 8051SOL     OW24330   0.926   0.619   7.290 -0.5645  0.0330 -0.1069
 8051SOL    HW124331   0.971   0.534   7.260 -1.5874 -0.1567 -1.2013
 8051SOL    HW224332   0.838   0.597   7.331 -2.3600  0.6614 -3.3165
 8052SOL     OW24333   0.152   5.721   7.086 -0.3538 -0.3626 -0.2425
 8052SOL    HW124334   0.161   5.660   7.007  0.3728 -0.5191 -0.0469
 8052SOL    HW224335   0.057   5.752   7.094 -0.7572 -1.5265 -0.3086
 8053SOL     OW24336   3.509   2.740   2.008 -0.2622 -0.3164  0.2485
 8053SOL    HW124337   3.465   2.821   1.971  0.6211 -0.1011 -0.3639
 8053SOL    HW224338   3.444   2.689   2.064 -1.0558  0.3803 -0.0246
 8054SOL     OW24339   3.117   1.049   2.658 -0.3739 -0.1061  0.2029
 8054SOL    HW124340   3.109   0.975   2.724  2.6640  0.4259  1.3146
 8054SOL    HW224341   3.093   1.136   2.701  1.9358  0.2872  0.8258
 8055SOL     OW24342   4.224   5.732   0.966  0.1347  0.0234  0.2313
 8055SOL    HW124343   4.130   5.767   0.968 -0.8686 -2.3854 -0.8430
 8055SOL    HW224344   4.242   5.690   0.877  2.1916  0.2410  0.4987
 8056SOL     OW24345   7.896   6.105   5.682 -0.2258  0.0141 -0.1797
 8056SOL    HW124346   7.911   6.019   5.634 -1.3907  0.1614 -0.8286
 8056SOL    HW224347   7.955   6.109   5.764  1.4248 -0.4575 -1.2927
 8057SOL     OW24348   1.070   5.155   5.058 -0.2968 -0.7027 -0.4742
 8057SOL    HW124349   1.055   5.230   5.122 -1.4160 -0.8708 -0.5223
 8057SOL    HW224350   0.987   5.140   5.004  0.2616 -1.2956 -1.1839
 8058SOL     OW24351   1.282   3.613   6.032  0.0966  0.3286  0.3642
 8058SOL    HW124352   1.309   3.518   6.042  2.2937  0.9654  0.9461
 8058SOL    HW224353   1.319   3.651   5.947  0.4450  1.0241  0.8108
 8059SOL     OW24354   7.363   0.818   3.327  0.2709  0.5218  0.2899
 8059SOL    HW124355   7.302   0.827   3.247 -1.3505  0.4949  1.4775
 8059SOL    HW224356   7.396   0.724   3.332 -0.1092  0.3680 -0.0089
 8060SOL     OW24357   8.748   4.535   6.789 -1.0319 -0.1282  0.3691
 8060SOL    HW124358   8.713   4.535   6.696 -1.6370  0.1408  0.5869
 8060SOL    HW224359   8.830   4.479   6.795  0.2947  1.5871 -0.8034
 8061SOL     OW24360   2.307   3.640   6.533  0.1140  0.4243 -0.1096
 8061SOL    HW124361   2.379   3.706   6.511  1.3448  0.4397  3.4187
 8061SOL    HW224362   2.345   3.547   6.530 -1.0578 -0.0633 -2.8795
 8062SOL     OW24363   5.945   0.878   6.338  0.5957 -0.4052 -0.1136
 8062SOL    HW124364   5.862   0.916   6.297  0.0065 -0.4345  0.9808
 8062SOL    HW224365   5.964   0.788   6.298 -0.3501 -0.7359  0.1473
 8063SOL     OW24366   1.322   2.636   1.367  0.1664 -0.2355  0.2168
 8063SOL    HW124367   1.417   2.632   1.337  0.4204 -0.4103  1.0090
 8063SOL    HW224368   1.304   2.560   1.430 -0.9006 -1.0565 -1.0353
 8064SOL     OW24369   0.881   6.279   5.952 -0.2184 -0.2228 -0.2535
 8064SOL    HW124370   0.970   6.238   5.970 -0.7020 -0.6997  1.1517
 8064SOL    HW224371   0.831   6.223   5.886  0.2664 -0.2871 -0.5717
 8065SOL     OW24372   8.682   3.753   1.968 -0.7463 -0.0275 -0.0792
 8065SOL    HW124373   8.662   3.843   2.008  2.2526  0.2981  0.9603
 8065SOL    HW224374   8.741   3.765   1.888 -0.6863 -1.0349 -0.1944
 8066SOL     OW24375   3.838   2.973   1.270 -0.6389 -0.2971 -0.0934
 8066SOL    HW124376   3.829   2.877   1.298 -1.4134  0.0435  0.9112
 8066SOL    HW224377   3.785   2.988   1.187  0.2374 -0.9315 -0.7918
 8067SOL     OW24378   1.267   4.696   3.786 -0.2609 -0.3455  0.0205
 8067SOL    HW124379   1.291   4.793   3.790  0.2821 -0.4524 -0.5928
 8067SOL    HW224380   1.212   4.678   3.704  0.0994 -0.6578 -0.1508
 8068SOL     OW24381   0.670   2.356   7.031  0.0245  0.4830 -0.0153
 8068SOL    HW124382   0.684   2.275   6.975  3.8280  1.6909 -1.0949
 8068SOL    HW224383   0.669   2.330   7.127  0.4344 -0.9060 -0.3631
 8069SOL     OW24384   3.847   7.725   4.674  0.1763 -0.1020 -0.7552
 8069SOL    HW124385   3.927   7.705   4.618  0.1201 -0.7990 -0.5973
 8069SOL    HW224386   3.770   7.752   4.615  0.3007 -0.2124 -0.9688
 8070SOL     OW24387   2.550   3.881   1.292 -0.3193 -0.3033  0.2351
 8070SOL    HW124388   2.508   3.792   1.310  0.7468 -0.8228  0.2849
 8070SOL    HW224389   2.646   3.879   1.322 -0.8012  1.5215  2.0919
 8071SOL     OW24390   7.926   5.992   1.369  0.2817 -0.3791 -0.0524
 8071SOL    HW124391   7.923   6.072   1.309  0.3678 -0.2216  0.1561
 8071SOL    HW224392   8.002   6.000   1.433 -0.8377  0.2913  1.2503
 8072SOL     OW24393   6.883   4.027   3.339 -0.1027  0.4433 -0.1806
 8072SOL    HW124394   6.822   4.106   3.337  0.1492  0.6510  0.1615
 8072SOL    HW224395   6.837   3.947   3.300  0.2829  1.2072 -2.3759
 8073SOL     OW24396   3.955   0.839   1.686 -0.8393  0.1080 -0.2038
 8073SOL    HW124397   3.878   0.792   1.729 -1.8703  1.6293 -0.3330
 8073SOL    HW224398   3.929   0.869   1.594 -0.3433  1.2342  0.0062
 8074SOL     OW24399   1.834   1.265   8.825  0.3131  0.4774 -0.8528
 8074SOL    HW124400   1.778   1.341   8.858  0.0579 -0.3618  0.7697
 8074SOL    HW224401   1.926   1.298   8.805  0.3417  1.1375  0.3058
 8075SOL     OW24402   5.200   7.805   1.671 -0.0104  0.2620 -0.1382
 8075SOL    HW124403   5.149   7.780   1.588 -0.2205  1.0835 -0.2593
 8075SOL    HW224404   5.284   7.752   1.674 -0.4556 -0.4858 -0.3782
 8076SOL     OW24405   6.411   6.287   6.942  0.1706  0.0214 -0.0052
 8076SOL    HW124406   6.407   6.310   6.845 -0.0512 -2.0993 -0.5620
 8076SOL    HW224407   6.371   6.196   6.956  2.6407 -0.9112  1.6535
 8077SOL     OW24408   6.180   2.873   7.236 -0.4903 -0.1373 -0.1159
 8077SOL    HW124409   6.229   2.891   7.151  0.2539  2.6592  0.7857
 8077SOL    HW224410   6.104   2.938   7.246  0.5063  0.7972  2.0927
 8078SOL     OW24411   5.666   8.661   6.583  0.1646 -0.0221  0.3092
 8078SOL    HW124412   5.759   8.646   6.547  0.0807 -0.7516  0.3674
 8078SOL    HW224413   5.661   8.625   6.676 -0.7420 -2.0126 -0.4435
 8079SOL     OW24414   6.534   2.657   3.525  0.0220  0.6606 -0.3783
 8079SOL    HW124415   6.472   2.720   3.478 -0.3127  0.2207 -0.5270
 8079SOL    HW224416   6.481   2.594   3.582  0.3363  0.3554 -0.4207
 8080SOL     OW24417   7.316   0.460   2.628 -0.0491  0.1432 -0.0305
 8080SOL    HW124418   7.411   0.471   2.597 -0.0983 -0.6834 -0.4835
 8080SOL    HW224419   7.316   0.408   2.714 -0.0871  0.3185  0.0774
 8081SOL     OW24420   6.038   4.542   6.251  0.6081  0.0286 -0.1913
 8081SOL    HW124421   6.128   4.502   6.269 -0.0131 -0.6113  1.6896
 8081SOL    HW224422   5.992   4.489   6.180  1.2070 -0.4116 -0.2678
 8082SOL     OW24423   4.905   8.667   4.143  0.5555 -0.1511 -0.2908
 8082SOL    HW124424   4.970   8.622   4.081  0.5834  0.1489 -0.4812
 8082SOL    HW224425   4.937   8.760   4.163  0.6347 -0.3021  0.3066
 8083SOL     OW24426   6.463   7.577   6.107 -0.4138 -0.5744 -0.1174
 8083SOL    HW124427   6.426   7.669   6.121 -1.7012 -1.2595  1.3653
 8083SOL    HW224428   6.547   7.566   6.159 -1.3272 -0.8175  1.3798
 8084SOL     OW24429   6.417   2.269   0.489  0.6507 -0.2300 -0.0524
 8084SOL    HW124430   6.366   2.265   0.574  0.4318 -2.1758 -0.2240
 8084SOL    HW224431   6.406   2.359   0.447 -1.2501 -0.0636  0.7368
 8085SOL     OW24432   6.963   6.427   2.187  0.2713 -0.1154  0.6310
 8085SOL    HW124433   7.022   6.500   2.152  0.1199  0.0273  0.6729
 8085SOL    HW224434   6.925   6.375   2.111 -0.2153  0.3178  0.5693
 8086SOL     OW24435   2.290   2.687   6.811 -0.2353 -0.1029 -0.0565
 8086SOL    HW124436   2.214   2.751   6.806  0.5894  0.9219  0.2048
 8086SOL    HW224437   2.358   2.711   6.742  0.4481 -0.2046  0.5679
 8087SOL     OW24438   3.677   8.193   7.723 -0.3272  0.0499  0.2795
 8087SOL    HW124439   3.697   8.233   7.812  0.8645  0.9159 -0.3522
 8087SOL    HW224440   3.760   8.190   7.668 -0.3128 -3.2777  0.2390
 8088SOL     OW24441   5.581   5.157   3.837 -0.3858  0.3076  0.3395
 8088SOL    HW124442   5.662   5.143   3.894 -0.3957  1.2125  0.5927
 8088SOL    HW224443   5.510   5.204   3.890 -0.1750  1.7124 -0.5660
 8089SOL     OW24444   2.835   7.635   7.277 -0.1004 -0.7890 -0.2658
 8089SOL    HW124445   2.878   7.583   7.351  0.0483 -0.2164  0.0570
 8089SOL    HW224446   2.824   7.730   7.305 -2.3594 -1.0875 -0.0253
 8090SOL     OW24447   1.344   7.879   6.255  0.0033  0.2443 -0.7417
 8090SOL    HW124448   1.390   7.933   6.325 -0.6691  0.1446 -0.2104
 8090SOL    HW224449   1.282   7.813   6.299  1.4771 -1.6073 -1.3211
 8091SOL     OW24450   0.009   0.034   6.609  0.5018  0.1143 -0.4423
 8091SOL    HW124451  -0.035   0.050   6.520 -2.2607  1.1531  0.9902
 8091SOL    HW224452  -0.000  -0.062   6.634 -1.4192  0.3532 -0.0370
 8092SOL     OW24453   6.327   8.264   3.610  0.1075  0.0011  0.0627
 8092SOL    HW124454   6.346   8.211   3.527  0.2843 -0.0073  0.1071
 8092SOL    HW224455   6.354   8.212   3.690  1.3293  0.5758  0.0588
 8093SOL     OW24456   7.428   7.743   7.627  0.8522  1.2758  0.1088
 8093SOL    HW124457   7.328   7.749   7.633  0.7615  1.8715 -1.5628
 8093SOL    HW224458   7.461   7.676   7.694 -0.6107  1.4048  1.0015
 8094SOL     OW24459   2.080   6.523   3.908  0.4963  0.4893  0.1425
 8094SOL    HW124460   2.126   6.602   3.950  0.9272  0.5337 -0.3969
 8094SOL    HW224461   1.987   6.548   3.883  0.1376  0.3761  1.3244
 8095SOL     OW24462   2.101   3.642   2.458 -0.0710  0.4372  0.6754
 8095SOL    HW124463   2.005   3.652   2.484  0.0544  3.8504  0.2301
 8095SOL    HW224464   2.159   3.666   2.536  0.3824  1.2721  0.0919
 8096SOL     OW24465   6.930   8.586   1.369 -0.6534 -0.6134  0.4126
 8096SOL    HW124466   6.973   8.498   1.347 -2.1189 -0.6370 -3.1562
 8096SOL    HW224467   6.991   8.661   1.343 -0.3401 -0.5996  1.1916
 8097SOL     OW24468   4.697   2.489   0.821 -0.1583 -0.0122 -0.3826
 8097SOL    HW124469   4.700   2.548   0.740  2.2978  0.2497 -0.1698
 8097SOL    HW224470   4.774   2.426   0.819  0.2523  0.3374  1.9960
 8098SOL     OW24471   0.884   7.394   6.460  0.0804  0.2572 -0.4334
 8098SOL    HW124472   0.924   7.360   6.375 -0.2043 -1.4243  0.0570
 8098SOL    HW224473   0.863   7.491   6.451  2.4620  0.7533 -1.3602
 8099SOL     OW24474   5.763   0.420   7.621 -0.5528  0.5459 -0.1331
 8099SOL    HW124475   5.800   0.475   7.546 -2.3731  1.8166 -0.1648
 8099SOL    HW224476   5.762   0.474   7.705 -0.8965  0.0209  0.2075
 8100SOL     OW24477   2.389   4.702   6.528  0.2005 -0.0256  0.0479
 8100SOL    HW124478   2.432   4.675   6.442 -1.3137 -1.2773 -0.3641
 8100SOL    HW224479   2.354   4.795   6.519 -1.3722 -0.7003 -1.3029
 8101SOL     OW24480   0.569   2.388   5.235 -0.4000 -0.1670  0.0659
 8101SOL    HW124481   0.638   2.459   5.251 -0.7562  0.6893 -1.9821
 8101SOL    HW224482   0.601   2.326   5.163 -0.9625 -0.9136  0.4479
 8102SOL     OW24483   4.078   0.851   8.048  0.2963  0.2449 -0.5248
 8102SOL    HW124484   4.051   0.779   8.112 -0.0338  1.0997  0.3238
 8102SOL    HW224485   4.131   0.811   7.973  0.1488 -0.8670 -0.0561
 8103SOL     OW24486   4.940   4.116   5.071  0.1384 -0.8085 -0.4887
 8103SOL    HW124487   5.031   4.080   5.092 -0.7177 -3.3796 -0.8948
 8103SOL    HW224488   4.876   4.041   5.059 -1.6900  0.8791 -1.9972
 8104SOL     OW24489   3.967   0.242   1.190  0.2256  0.7489  0.0386
 8104SOL    HW124490   4.042   0.206   1.245  0.8073 -0.1010 -1.2716
 8104SOL    HW224491   3.906   0.296   1.249  0.0284 -1.2471  1.8071
 8105SOL     OW24492   6.018   0.995   4.053 -0.9146  0.2054  0.3028
 8105SOL    HW124493   6.037   1.072   4.114  1.2172 -1.2398  1.5632
 8105SOL    HW224494   6.072   1.004   3.970 -1.0191  0.2975  0.2442
 8106SOL     OW24495   3.290   2.540   1.331 -0.4156  0.9106 -0.0338
 8106SOL    HW124496   3.361   2.516   1.396 -0.3078  0.3690 -0.3490
 8106SOL    HW224497   3.200   2.524   1.371 -0.3774 -1.9720 -0.8956
 8107SOL     OW24498   5.140   2.727   2.861 -0.4676  0.4215  0.1084
 8107SOL    HW124499   5.085   2.715   2.778  0.9841  1.5191 -1.0655
 8107SOL    HW224500   5.182   2.640   2.885  0.3888  0.4142 -1.2910
 8108SOL     OW24501   8.773   1.920   4.040 -0.2284 -0.1916 -0.1718
 8108SOL    HW124502   8.769   2.018   4.056  0.5869 -0.2675  0.5348
 8108SOL    HW224503   8.849   1.898   3.980  0.0989 -0.4610  0.3273
 8109SOL     OW24504   6.065   4.037   1.191 -0.1764 -0.3496 -0.6783
 8109SOL    HW124505   5.972   4.064   1.218 -0.3941 -0.7118 -1.0567
 8109SOL    HW224506   6.064   4.006   1.096  0.3852 -0.1100 -0.7648
 8110SOL     OW24507   7.870   8.571   6.562 -0.2543  0.1861 -0.0189
 8110SOL    HW124508   7.969   8.557   6.563 -0.3381 -1.3623 -2.7990
 8110SOL    HW224509   7.829   8.521   6.638  0.8874 -1.7202 -0.5819
 8111SOL     OW24510   1.902   8.348   1.414 -0.3848 -0.4665  0.1231
 8111SOL    HW124511   1.990   8.323   1.454  0.1727  1.4223  0.1881
 8111SOL    HW224512   1.889   8.296   1.329  1.2793 -0.0632 -0.4291
 8112SOL     OW24513   1.455   5.474   3.646  0.0527 -0.2827  0.3566
 8112SOL    HW124514   1.487   5.381   3.625 -0.5750 -0.4678  0.1912
 8112SOL    HW224515   1.369   5.469   3.696 -0.7135  0.2126 -0.8515
 8113SOL     OW24516   2.804   7.677   8.190 -0.7100 -0.0600  0.1149
 8113SOL    HW124517   2.869   7.618   8.142  0.4162  1.4496 -0.2780
 8113SOL    HW224518   2.716   7.674   8.142 -0.5573 -1.1059 -0.1223
 8114SOL     OW24519   4.590   8.820   6.401 -0.3392  0.1390 -0.2242
 8114SOL    HW124520   4.675   8.793   6.447 -0.6347 -0.3553  0.0432
 8114SOL    HW224521   4.514   8.764   6.435 -0.4391 -0.8055 -1.8893
 8115SOL     OW24522   6.594   0.156   4.644 -0.1633 -0.1820  0.2536
 8115SOL    HW124523   6.637   0.084   4.589 -0.2991  0.5427 -0.8322
 8115SOL    HW224524   6.658   0.232   4.654 -0.0174 -0.4426  1.4034
 8116SOL     OW24525   3.904   4.033   8.824  0.5703  0.3035  0.1936
 8116SOL    HW124526   3.923   3.937   8.802  1.5649  0.7927 -1.2594
 8116SOL    HW224527   3.894   4.043   8.923  2.5956 -0.9703  0.5962
 8117SOL     OW24528   1.810   4.451   6.755 -0.1466 -0.1706 -0.0635
 8117SOL    HW124529   1.755   4.392   6.814 -2.2104 -0.5856 -2.2410
 8117SOL    HW224530   1.888   4.400   6.720 -1.2141 -1.2545 -0.9257
 8118SOL     OW24531   6.814   0.633   6.566  0.0795  0.4225  0.2638
 8118SOL    HW124532   6.735   0.648   6.626 -0.0879 -0.2914  0.2297
 8118SOL    HW224533   6.828   0.713   6.508 -1.5495 -0.0224 -0.7983
 8119SOL     OW24534   2.787   4.410   5.814 -0.0217 -0.1731 -0.0729
 8119SOL    HW124535   2.785   4.468   5.895 -2.1027 -1.3927  0.8311
 8119SOL    HW224536   2.800   4.466   5.733  0.4103  1.2583  0.9414
 8120SOL     OW24537   2.824   1.182   8.521  0.2288 -0.3367  0.3551
 8120SOL    HW124538   2.850   1.112   8.455  0.1871 -0.4435  0.4527
 8120SOL    HW224539   2.812   1.141   8.611  0.3010 -0.1892  0.4339
 8121SOL     OW24540   8.254   7.893   6.316  0.2556  0.3067  0.0293
 8121SOL    HW124541   8.278   7.899   6.219  2.4813 -2.0761  0.3509
 8121SOL    HW224542   8.327   7.934   6.371  0.2503 -0.6871  0.7929
 8122SOL     OW24543   6.726   8.476   8.469 -0.2036  0.2833 -0.4060
 8122SOL    HW124544   6.754   8.560   8.421 -0.0055  0.9491  0.8338
 8122SOL    HW224545   6.666   8.500   8.545 -1.2957 -0.8392 -0.8943
 8123SOL     OW24546   8.436   6.069   2.432 -0.2580 -0.5471  0.2907
 8123SOL    HW124547   8.355   6.095   2.381 -2.2332  2.4911  4.3247
 8123SOL    HW224548   8.503   6.144   2.427  2.6048 -3.0103 -2.9998
 8124SOL     OW24549   4.484   1.905   7.737 -0.2212 -0.6569  0.1532
 8124SOL    HW124550   4.407   1.941   7.789  0.7659  1.9203 -0.0506
 8124SOL    HW224551   4.450   1.861   7.654 -1.4770  0.0824  0.2528
 8125SOL     OW24552   2.442   5.991   4.640  0.1242 -0.2441  0.6668
 8125SOL    HW124553   2.514   6.015   4.704  1.7478 -1.6101 -0.5583
 8125SOL    HW224554   2.482   5.947   4.560 -1.7195  2.0742 -1.7002
 8126SOL     OW24555   2.977   7.102   1.108 -0.1738  0.0990 -0.0756
 8126SOL    HW124556   3.034   7.081   1.029 -0.0023  1.9453 -0.4967
 8126SOL    HW224557   2.929   7.019   1.138  2.9217 -1.6068  0.5264
 8127SOL     OW24558   6.127   3.080   6.100  0.0206  0.1999  0.0946
 8127SOL    HW124559   6.213   3.053   6.056  2.0527  2.4000  2.3860
 8127SOL    HW224560   6.103   3.173   6.072 -1.4655 -0.2442 -0.2069
 8128SOL     OW24561   7.895   3.721   5.162  0.4704  1.0076  0.4842
 8128SOL    HW124562   7.876   3.819   5.153 -1.4541  0.6388  0.2254
 8128SOL    HW224563   7.920   3.701   5.257 -0.8505  1.4969  0.9559
 8129SOL     OW24564   7.376   1.151   7.165 -0.1179 -0.2622  0.3499
 8129SOL    HW124565   7.430   1.202   7.099 -0.0756  0.3391  0.8450
 8129SOL    HW224566   7.407   1.172   7.258  1.1392 -2.5654  0.5307
 8130SOL     OW24567   8.487   0.143   1.948 -0.0554 -0.0469 -0.0106
 8130SOL    HW124568   8.573   0.112   1.987 -0.3129 -1.4185 -0.4787
 8130SOL    HW224569   8.444   0.068   1.898  0.1440  1.4969 -2.7453
 8131SOL     OW24570   2.131   3.689   1.514  0.2490 -0.3768 -0.2451
 8131SOL    HW124571   2.166   3.744   1.590 -3.4146 -0.4117  1.7169
 8131SOL    HW224572   2.065   3.743   1.462  0.1165 -1.4714 -1.2580
 8132SOL     OW24573   8.456   1.465   5.322  0.7567 -0.1740  0.0898
 8132SOL    HW124574   8.415   1.554   5.303  1.5131  0.6113  1.8475
 8132SOL    HW224575   8.553   1.467   5.296  1.0152 -0.1242  1.0023
 8133SOL     OW24576   3.349   0.955   4.472 -0.2245  0.4516  0.2201
 8133SOL    HW124577   3.436   0.981   4.514  0.0250  0.2495 -0.1710
 8133SOL    HW224578   3.279   1.023   4.496  0.1277  0.8155  0.2312
 8134SOL     OW24579   8.743   0.876   4.905 -0.0513 -0.1924 -0.2794
 8134SOL    HW124580   8.723   0.969   4.937 -0.8791 -0.0299 -1.2131
 8134SOL    HW224581   8.802   0.881   4.825 -1.2863 -0.3737 -1.2353
 8135SOL     OW24582   6.717   7.059   7.684 -0.0004 -0.3781 -0.1494
 8135SOL    HW124583   6.689   7.150   7.714  0.8927 -0.4377  0.9332
 8135SOL    HW224584   6.657   7.028   7.610 -1.0470  0.6001  0.2660
 8136SOL     OW24585   0.540   8.009   6.234 -0.0960 -0.8646  0.0712
 8136SOL    HW124586   0.511   8.027   6.140 -1.7900  1.0821  0.8871
 8136SOL    HW224587   0.640   8.008   6.238  0.0444  0.5618 -1.5272
 8137SOL     OW24588   6.934   7.336   8.632 -0.0047 -0.1287  0.4597
 8137SOL    HW124589   6.863   7.356   8.700 -0.7486  0.1312 -0.3694
 8137SOL    HW224590   6.902   7.262   8.572  0.4721 -0.0747  0.1366
 8138SOL     OW24591   4.235   5.931   0.706 -0.2437  0.3398  0.4918
 8138SOL    HW124592   4.192   5.966   0.623  1.2160  1.3944  0.1200
 8138SOL    HW224593   4.335   5.930   0.693 -0.0976 -1.9481  1.3125
 8139SOL     OW24594   3.802   8.307   8.590  0.0135  0.1767 -0.4237
 8139SOL    HW124595   3.735   8.258   8.645 -0.4891 -0.0907 -1.2538
 8139SOL    HW224596   3.835   8.247   8.517  0.7811  0.4748 -0.3364
 8140SOL     OW24597   8.348   5.401   3.701  0.5363  0.2838 -0.2753
 8140SOL    HW124598   8.267   5.373   3.753  0.5437  1.0509  0.1701
 8140SOL    HW224599   8.364   5.499   3.715  2.1836 -0.0643  0.5453
 8141SOL     OW24600   8.198   7.353   7.834  0.2557  0.3109  0.4299
 8141SOL    HW124601   8.118   7.389   7.787 -0.6484 -0.4147  1.3734
 8141SOL    HW224602   8.243   7.428   7.884  0.3430  0.7764 -0.3268
 8142SOL     OW24603   8.134   0.987   0.706  0.4936 -0.6572  0.3337
 8142SOL    HW124604   8.217   0.999   0.652 -0.2582 -0.9181 -0.9319
 8142SOL    HW224605   8.157   0.985   0.803  1.7871  0.8148  0.1035
 8143SOL     OW24606   1.427   0.261   2.163 -0.1332 -0.6212 -0.5716
 8143SOL    HW124607   1.463   0.186   2.218  0.9260  0.7673  0.6995
 8143SOL    HW224608   1.459   0.252   2.069  3.9228  0.6253  0.4955
 8144SOL     OW24609   4.740   4.577   6.623  0.5839 -0.8821  0.8800
 8144SOL    HW124610   4.713   4.606   6.531  0.0766  0.0873  1.3203
 8144SOL    HW224611   4.833   4.608   6.642 -0.1419  1.0082  1.5467
 8145SOL     OW24612   5.622   1.542   2.997  0.2985 -0.5953  0.1607
 8145SOL    HW124613   5.523   1.546   2.993  0.3542 -0.3208 -1.8477
 8145SOL    HW224614   5.651   1.527   3.092 -1.6067  0.1876  0.9134
 8146SOL     OW24615   5.383   0.548   6.093 -0.0480 -0.4909  0.1585
 8146SOL    HW124616   5.311   0.579   6.030  0.4283 -1.7510 -1.0707
 8146SOL    HW224617   5.460   0.512   6.039  1.0634 -0.1363  1.4632
 8147SOL     OW24618   2.582   6.092   6.332 -0.8099  0.0775 -0.6123
 8147SOL    HW124619   2.484   6.090   6.355 -0.6176 -0.4939  0.2298
 8147SOL    HW224620   2.613   5.998   6.313  0.3175 -0.3309  2.6017
 8148SOL     OW24621   1.644   8.051   4.453 -0.0205 -0.3842  0.1129
 8148SOL    HW124622   1.666   8.148   4.463 -0.0757  0.0041 -2.6546
 8148SOL    HW224623   1.545   8.040   4.438  0.2056 -0.5937 -1.4943
 8149SOL     OW24624   5.217   3.901   7.447  0.1324  0.4274 -0.1361
 8149SOL    HW124625   5.219   3.886   7.546 -0.7980  1.0885 -0.0049
 8149SOL    HW224626   5.211   3.812   7.400 -0.8092  0.1692  0.4536
 8150SOL     OW24627   1.667   2.125   2.313 -0.3659  0.5942  0.1632
 8150SOL    HW124628   1.748   2.075   2.281 -0.3868 -0.8877  2.2081
 8150SOL    HW224629   1.585   2.076   2.285 -0.5599  1.4707 -0.8924
 8151SOL     OW24630   7.457   8.696   1.871 -0.1570  1.1448  0.7545
 8151SOL    HW124631   7.482   8.688   1.968 -0.0786 -0.8194  0.6177
 8151SOL    HW224632   7.530   8.743   1.822  1.8861 -1.5095  0.9772
 8152SOL     OW24633   3.598   8.534   8.260 -0.5092  0.3101  0.3461
 8152SOL    HW124634   3.544   8.553   8.177  0.3226 -1.9900 -0.8203
 8152SOL    HW224635   3.673   8.600   8.266  0.1312 -0.1790 -1.4494
 8153SOL     OW24636   6.013   0.807   4.893  0.3243 -0.2555  0.6491
 8153SOL    HW124637   6.112   0.814   4.910  0.1367  0.6419  1.4478
 8153SOL    HW224638   5.979   0.721   4.932  0.9181 -0.9471 -0.3239
 8154SOL     OW24639   8.224   6.852   2.725  0.0257 -0.5493  0.0222
 8154SOL    HW124640   8.152   6.800   2.771 -1.1820  1.0882  0.0973
 8154SOL    HW224641   8.228   6.826   2.629 -0.2705 -1.0692  0.1467
 8155SOL     OW24642   6.704   5.755   8.003 -0.2464 -0.0598 -0.7489
 8155SOL    HW124643   6.656   5.668   7.990 -0.0115 -0.3480  0.2482
 8155SOL    HW224644   6.786   5.757   7.946 -0.0411 -0.6600 -0.4762
 8156SOL     OW24645   3.552   3.066   2.061  0.0314 -0.0011 -0.2429
 8156SOL    HW124646   3.510   3.036   1.976 -0.4048 -1.5809  0.4788
 8156SOL    HW224647   3.610   3.146   2.044  0.9258 -1.0057 -2.2426
 8157SOL     OW24648   3.341   3.621   8.350  0.0436  0.1120  0.2904
 8157SOL    HW124649   3.339   3.524   8.375 -1.5923  0.5966  2.3300
 8157SOL    HW224650   3.248   3.651   8.326  0.4238  1.2881  0.2023
 8158SOL     OW24651   4.222   7.251   6.272 -0.1247 -0.7293 -0.4913
 8158SOL    HW124652   4.176   7.195   6.203  0.2679  0.9572 -2.2172
 8158SOL    HW224653   4.273   7.192   6.335  0.1063 -2.3315 -2.0941
 8159SOL     OW24654   8.413   1.762   1.087  0.0754  0.4847  0.1605
 8159SOL    HW124655   8.504   1.754   1.128 -0.4697  0.0432  1.3367
 8159SOL    HW224656   8.389   1.858   1.077  1.8939  0.7298 -3.0549
 8160SOL     OW24657   1.319   1.143   5.863  0.1517 -0.1109 -0.6363
 8160SOL    HW124658   1.413   1.130   5.895  0.0550  1.4370  0.3549
 8160SOL    HW224659   1.256   1.094   5.923  0.1320  1.1214  0.3854
 8161SOL     OW24660   4.570   1.581   8.086 -0.1214 -0.1190  0.1008
 8161SOL    HW124661   4.579   1.654   8.154  2.0920 -0.1427 -0.0804
 8161SOL    HW224662   4.577   1.620   7.994 -1.5998 -0.2740 -0.1037
 8162SOL     OW24663   4.128   2.828   8.144  0.2488 -0.0057 -0.0882
 8162SOL    HW124664   4.210   2.782   8.179  0.1879 -0.7621 -0.9134
 8162SOL    HW224665   4.085   2.771   8.075 -0.0685  1.1104 -0.8317
 8163SOL     OW24666   2.589   7.685   2.821 -0.2458 -0.0706 -0.5987
 8163SOL    HW124667   2.539   7.768   2.797  0.1845 -0.4140 -2.9425
 8163SOL    HW224668   2.538   7.605   2.790  0.6413 -0.5352 -0.9011
 8164SOL     OW24669   3.652   1.017   7.547  0.4180  0.0874 -0.0632
 8164SOL    HW124670   3.643   0.946   7.617 -1.0941 -0.4712 -0.7718
 8164SOL    HW224671   3.590   1.093   7.569 -0.9042 -0.5787 -1.3262
 8165SOL     OW24672   0.778   7.472   3.707  0.9231 -0.1309 -0.4255
 8165SOL    HW124673   0.762   7.392   3.765  1.4048 -1.0843 -1.5625
 8165SOL    HW224674   0.804   7.550   3.764  0.5950 -0.8215  0.6994
 8166SOL     OW24675   4.252   1.485   7.472  0.6261 -0.0273  0.0896
 8166SOL    HW124676   4.277   1.391   7.496  0.5519 -0.1287 -0.2263
 8166SOL    HW224677   4.191   1.522   7.542  1.3672  0.0993  0.6781
 8167SOL     OW24678   7.644   5.370   1.810  0.4549 -0.0548 -0.0606
 8167SOL    HW124679   7.700   5.288   1.814 -0.2822 -0.5357  0.7933
 8167SOL    HW224680   7.597   5.383   1.897  0.8201  1.4736 -0.0523
 8168SOL     OW24681   4.312   2.682   5.007 -0.0149 -0.4816  0.4787
 8168SOL    HW124682   4.367   2.599   4.995  0.2848 -0.0477 -1.7050
 8168SOL    HW224683   4.369   2.756   5.043  0.3813 -0.5594  0.0298
 8169SOL     OW24684   6.571   3.739   0.875 -0.6115  0.0200 -0.3834
 8169SOL    HW124685   6.544   3.647   0.903  0.7723 -0.5557 -0.8331
 8169SOL    HW224686   6.513   3.807   0.920 -1.1853 -1.0476  0.5130
 8170SOL     OW24687   1.966   7.907   0.156 -0.2496 -0.8056 -0.2278
 8170SOL    HW124688   1.971   7.807   0.153  1.1717 -0.8298  1.3975
 8170SOL    HW224689   2.011   7.940   0.238 -0.2792  1.2208 -0.9700
 8171SOL     OW24690   2.083   7.923   4.602 -0.3047 -0.1002 -0.6292
 8171SOL    HW124691   1.985   7.943   4.606 -0.2097  0.2577  0.2791
 8171SOL    HW224692   2.100   7.830   4.635 -0.3124 -0.0664 -0.5298
 8172SOL     OW24693   7.325   7.104   5.192 -0.3703  0.6032 -0.5632
 8172SOL    HW124694   7.241   7.056   5.219  0.8544 -1.6928 -0.6157
 8172SOL    HW224695   7.324   7.122   5.094 -0.1832 -0.7419 -0.8198
 8173SOL     OW24696   3.301   2.062   8.197 -0.5655 -0.0726 -0.3896
 8173SOL    HW124697   3.324   1.965   8.193 -0.7686 -0.1317 -0.1129
 8173SOL    HW224698   3.203   2.074   8.181 -0.5131  0.1030 -0.5939
 8174SOL     OW24699   6.243   6.052   7.538 -0.5750  0.3134 -0.1567
 8174SOL    HW124700   6.172   5.996   7.495 -1.7701  0.1401  1.8717
 8174SOL    HW224701   6.222   6.062   7.636  1.0512  2.0894  0.0702
 8175SOL     OW24702   4.201   0.458   1.410  0.1436 -0.0145  0.2706
 8175SOL    HW124703   4.269   0.384   1.415  0.2383  0.1073  0.8709
 8175SOL    HW224704   4.148   0.459   1.494 -0.4208  0.0695 -0.0859
 8176SOL     OW24705   4.667   7.189   7.022 -0.2565 -0.2963 -0.4032
 8176SOL    HW124706   4.762   7.185   6.989 -0.0275 -0.1988  0.2158
 8176SOL    HW224707   4.668   7.212   7.119 -0.9412  0.1007 -0.4903
 8177SOL     OW24708   0.429   5.027   2.494 -0.6029  0.1293 -0.1085
 8177SOL    HW124709   0.482   5.001   2.414  0.4031  0.3910  0.4575
 8177SOL    HW224710   0.482   5.091   2.550 -0.2216 -1.9696  2.0764
 8178SOL     OW24711   1.264   1.928   6.687  0.1431  0.0940  0.4722
 8178SOL    HW124712   1.233   1.853   6.629 -0.5167  0.0035  0.9269
 8178SOL    HW224713   1.330   1.984   6.637 -3.0240  2.1665 -1.8201
 8179SOL     OW24714   0.669   0.840   6.357  0.0320 -0.3814  0.4044
 8179SOL    HW124715   0.597   0.784   6.317 -1.0470  1.5793 -0.5913
 8179SOL    HW224716   0.645   0.863   6.451 -1.5745  1.5920 -0.4053
 8180SOL     OW24717   4.490   8.686   3.522  0.0263 -0.3547 -0.5256
 8180SOL    HW124718   4.424   8.722   3.588  0.2376 -0.7842 -0.0683
 8180SOL    HW224719   4.583   8.707   3.553  0.1116  0.1019 -1.0822
 8181SOL     OW24720   3.695   3.016   2.726  0.3527 -0.2174 -0.3018
 8181SOL    HW124721   3.700   2.916   2.722  3.4969 -0.1460 -1.0606
 8181SOL    HW224722   3.776   3.051   2.772 -0.7367  2.0214  0.0481
 8182SOL     OW24723   0.035   6.171   3.001  0.6918  0.2375  1.0397
 8182SOL    HW124724   0.018   6.256   2.951  0.3112 -0.5227 -0.1597
 8182SOL    HW224725  -0.050   6.141   3.044  0.4104 -0.4182  0.0441
 8183SOL     OW24726   3.378   1.697   4.486  0.1715 -0.4931  0.2921
 8183SOL    HW124727   3.394   1.648   4.401 -1.9193  0.4703 -0.7192
 8183SOL    HW224728   3.330   1.783   4.467  1.1608  0.5749  2.2899
 8184SOL     OW24729   2.191   1.912   4.299  0.1725 -0.7756 -0.3982
 8184SOL    HW124730   2.143   1.855   4.232  1.4850 -2.3132 -0.0903
 8184SOL    HW224731   2.286   1.924   4.271 -0.2702  2.1695 -0.9663
 8185SOL     OW24732   3.073   8.303   8.243  0.0387  0.0219 -0.5407
 8185SOL    HW124733   3.088   8.390   8.291 -0.3099 -1.0783  1.6772
 8185SOL    HW224734   3.160   8.268   8.209  0.2584  0.9585 -0.9776
 8186SOL     OW24735   1.444   3.857   8.348  0.3892 -0.1099 -0.3398
 8186SOL    HW124736   1.477   3.944   8.312 -0.1701  0.3963  0.3567
 8186SOL    HW224737   1.388   3.812   8.278 -0.6787  0.8616 -0.1459
 8187SOL     OW24738   4.520   2.788   0.534  0.4578  0.1864  0.0096
 8187SOL    HW124739   4.514   2.820   0.439  1.6240  2.0149  0.4882
 8187SOL    HW224740   4.459   2.843   0.591  1.3847  0.5839  0.6363
 8188SOL     OW24741   6.925   3.598   3.636  0.1124 -0.1718  0.3749
 8188SOL    HW124742   6.901   3.694   3.647  1.5390  0.3002 -0.4048
 8188SOL    HW224743   6.959   3.582   3.543  1.7020 -0.9944  1.0435
 8189SOL     OW24744   4.419   4.296   7.820 -0.1100  0.5484 -0.2884
 8189SOL    HW124745   4.361   4.226   7.779  0.6154 -0.0162 -0.3798
 8189SOL    HW224746   4.390   4.387   7.789 -1.2310  0.3100  0.0477
 8190SOL     OW24747   3.997   2.996   1.695  0.4717  0.2915 -0.4978
 8190SOL    HW124748   3.999   3.088   1.655 -0.0875  0.1926 -0.7667
 8190SOL    HW224749   4.089   2.957   1.695  0.9644  1.3454  0.7913
 8191SOL     OW24750   6.196   6.207   8.130  0.0112  0.1266  0.2255
 8191SOL    HW124751   6.259   6.220   8.207  0.3470  0.1376 -0.0509
 8191SOL    HW224752   6.177   6.110   8.119  2.2625 -0.1874 -1.4913
 8192SOL     OW24753   2.161   5.238   1.536 -0.0889  0.0073  0.3586
 8192SOL    HW124754   2.198   5.222   1.627  0.9417 -1.1771 -0.2432
 8192SOL    HW224755   2.073   5.191   1.527 -0.0853 -0.0581  0.6769
 8193SOL     OW24756   4.423   4.309   3.078 -0.0429  0.4469  0.0120
 8193SOL    HW124757   4.328   4.278   3.067  0.4651 -1.8128  1.2529
 8193SOL    HW224758   4.428   4.371   3.157 -0.4698  0.4465  0.0441
 8194SOL     OW24759   6.672   0.244   6.940  0.1598 -0.0224  0.1681
 8194SOL    HW124760   6.682   0.248   7.039  0.0199  0.0662  0.1788
 8194SOL    HW224761   6.722   0.164   6.904  0.3227  0.0227  0.2936
 8195SOL     OW24762   5.119   8.318   5.884 -0.0121 -0.1977 -0.5032
 8195SOL    HW124763   5.183   8.267   5.942 -1.2926 -1.0371  0.2313
 8195SOL    HW224764   5.044   8.257   5.856 -0.2652  0.6357 -1.6980
 8196SOL     OW24765   4.173   3.510   7.727 -0.1088  0.3174 -0.0332
 8196SOL    HW124766   4.099   3.461   7.681 -0.4666  1.7448 -1.0398
 8196SOL    HW224767   4.209   3.580   7.666  0.6815  1.0154  1.2083
 8197SOL     OW24768   4.496   2.948   5.198 -0.4311 -0.0451  0.5985
 8197SOL    HW124769   4.542   2.860   5.204 -1.4498 -0.9765 -3.0423
 8197SOL    HW224770   4.533   3.001   5.122 -2.9316  0.6402 -0.2530
 8198SOL     OW24771   4.232   3.045   1.366  0.2460 -0.3444 -0.0264
 8198SOL    HW124772   4.287   3.114   1.413  2.7419 -0.9062 -1.9107
 8198SOL    HW224773   4.182   3.089   1.290 -1.1726 -0.0227  1.0486
 8199SOL     OW24774   1.513   0.040   2.762  0.1538 -0.2462 -0.7108
 8199SOL    HW124775   1.430   0.094   2.770  1.5685  1.7149  3.4938
 8199SOL    HW224776   1.587   0.098   2.728  0.2871 -1.5092 -2.7363
 8200SOL     OW24777   4.734   6.456   2.790 -0.0867  0.3353 -0.4947
 8200SOL    HW124778   4.665   6.390   2.821  0.0884  0.2641 -0.2450
 8200SOL    HW224779   4.822   6.409   2.778 -0.3492  0.1806 -1.9698
 8201SOL     OW24780   1.789   7.440   5.847 -0.3559  0.1707  0.3480
 8201SOL    HW124781   1.751   7.364   5.901 -0.1329 -0.3655 -0.2308
 8201SOL    HW224782   1.855   7.490   5.902  0.9086 -1.2122  0.1621
 8202SOL     OW24783   6.398   3.347   4.665  0.4014 -0.1041 -0.1767
 8202SOL    HW124784   6.309   3.344   4.712  0.4652 -0.0339 -0.0522
 8202SOL    HW224785   6.429   3.441   4.658  0.9554 -0.2073  0.7044
 8203SOL     OW24786   8.609   1.539   3.048  0.0521  0.2711  0.1354
 8203SOL    HW124787   8.681   1.605   3.068  0.0016  0.8105 -1.3514
 8203SOL    HW224788   8.650   1.453   3.018  0.1000 -0.0425  1.0841
 8204SOL     OW24789   3.536   6.059   8.516  0.1962 -0.5987  0.0720
 8204SOL    HW124790   3.446   6.102   8.509 -0.0189 -1.1157 -0.4224
 8204SOL    HW224791   3.607   6.128   8.499 -0.0708 -0.0285  1.1952
 8205SOL     OW24792   3.497   4.514   0.522 -0.2556  0.3738  0.2198
 8205SOL    HW124793   3.504   4.571   0.441 -1.1156 -0.7346 -0.6577
 8205SOL    HW224794   3.552   4.431   0.510  0.5222  0.7131  1.2443
 8206SOL     OW24795   2.930   4.609   0.687 -0.2227 -0.1365  0.7601
 8206SOL    HW124796   2.959   4.532   0.745  0.7031 -2.3581 -2.3588
 8206SOL    HW224797   2.831   4.605   0.673 -0.2674 -0.3806  1.1392
 8207SOL     OW24798   7.386   1.763   0.965 -0.1897 -0.1339 -0.2803
 8207SOL    HW124799   7.417   1.856   0.985 -1.7237 -0.1349  2.6661
 8207SOL    HW224800   7.295   1.767   0.923  0.0018 -0.2954 -0.7116
 8208SOL     OW24801   2.029   4.858   7.471  0.0612  0.5835 -0.1480
 8208SOL    HW124802   2.036   4.759   7.459  0.1260  0.7221 -1.3116
 8208SOL    HW224803   2.120   4.898   7.481  0.0830  0.6271 -0.5243
 8209SOL     OW24804   8.634   0.582   5.964  0.1739  0.5010  0.4565
 8209SOL    HW124805   8.560   0.643   5.991 -1.1711 -0.6710 -0.4221
 8209SOL    HW224806   8.595   0.500   5.921  1.8489 -1.2933  2.1503
 8210SOL     OW24807   0.216   5.755   3.422  0.6478  0.4966  0.0390
 8210SOL    HW124808   0.143   5.822   3.432  0.4315  0.3879 -0.6916
 8210SOL    HW224809   0.196   5.696   3.343  1.3965  0.3029 -0.0180
 8211SOL     OW24810   5.455   7.973   6.585  0.4154 -0.2318 -0.4573
 8211SOL    HW124811   5.383   8.029   6.544  0.5630  0.6595  0.4339
 8211SOL    HW224812   5.453   7.881   6.547 -1.4603 -0.3441 -0.1686
 8212SOL     OW24813   2.608   5.384   5.548  0.1224  0.6426 -0.4966
 8212SOL    HW124814   2.672   5.308   5.545 -0.5471  0.0940 -1.3435
 8212SOL    HW224815   2.575   5.397   5.641  0.3263 -0.0386 -0.3291
 8213SOL     OW24816   4.315   7.588   5.548 -0.1401 -0.0404 -0.1121
 8213SOL    HW124817   4.231   7.632   5.515 -0.3257 -1.0335 -1.0305
 8213SOL    HW224818   4.312   7.583   5.648 -0.1138  1.9652  0.0365
 8214SOL     OW24819   2.669   6.955   6.107  0.0590 -0.0328 -0.4050
 8214SOL    HW124820   2.732   7.030   6.125 -0.4930  0.6276 -1.1567
 8214SOL    HW224821   2.687   6.916   6.017 -0.0738 -0.3850 -0.2843
 8215SOL     OW24822   7.261   7.587   0.646 -0.1326  0.6792  0.3369
 8215SOL    HW124823   7.246   7.631   0.735  1.0297 -0.0018  0.8980
 8215SOL    HW224824   7.185   7.523   0.628 -0.7921  1.4197  0.4456
 8216SOL     OW24825   6.517   5.991   3.563  0.3346  0.8866 -0.8123
 8216SOL    HW124826   6.616   5.985   3.577  0.1729  1.9063  1.1955
 8216SOL    HW224827   6.489   5.927   3.491  2.2307 -0.5325 -0.3616
 8217SOL     OW24828   0.681   8.705   6.446  0.0680 -0.8424 -0.0975
 8217SOL    HW124829   0.667   8.732   6.351  4.5940 -0.4922 -0.8746
 8217SOL    HW224830   0.691   8.605   6.451  0.9488 -0.7692 -0.2244
 8218SOL     OW24831   0.180   1.593   2.110  0.4995  0.1524  0.2599
 8218SOL    HW124832   0.115   1.659   2.145  0.7196 -0.1560  1.2772
 8218SOL    HW224833   0.164   1.504   2.153  0.3091 -0.4395 -0.9645
 8219SOL     OW24834   5.702   7.702   5.985 -0.0239  0.2333 -0.7197
 8219SOL    HW124835   5.735   7.617   5.945  2.1057  0.7166 -0.0899
 8219SOL    HW224836   5.740   7.780   5.934 -2.0879  0.8634 -1.4072
 8220SOL     OW24837   1.862   2.813   0.942  0.0772 -0.0353  0.2013
 8220SOL    HW124838   1.932   2.807   0.871  0.2863  0.3698  0.3719
 8220SOL    HW224839   1.890   2.880   1.011 -2.6551  4.0039 -2.2178
 8221SOL     OW24840   3.666   8.510   5.612 -0.8087 -0.9803 -0.8877
 8221SOL    HW124841   3.749   8.566   5.608  0.7348 -2.9569  1.2137
 8221SOL    HW224842   3.632   8.495   5.519  0.1086  1.3291 -1.6894
 8222SOL     OW24843   2.594   2.701   8.556 -0.3044 -0.1580  0.1454
 8222SOL    HW124844   2.583   2.613   8.510 -1.6829 -0.2853  0.6597
 8222SOL    HW224845   2.512   2.720   8.610  0.0138  1.4028  0.1105
 8223SOL     OW24846   0.551   8.279   0.967 -0.1389 -0.5161  0.0205
 8223SOL    HW124847   0.522   8.231   0.884 -0.9705 -1.3710  0.7859
 8223SOL    HW224848   0.509   8.369   0.970  0.8962  0.0345 -1.0943
 8224SOL     OW24849   2.106   3.573   8.557  0.8742  0.3041 -0.2986
 8224SOL    HW124850   2.141   3.664   8.580 -1.6723  0.9959  1.2606
 8224SOL    HW224851   2.020   3.582   8.507 -0.0778 -1.1677  0.9520
 8225SOL     OW24852   1.875   7.305   6.553  0.3829 -0.1627  0.6589
 8225SOL    HW124853   1.900   7.379   6.490 -2.7835  0.7728  0.2869
 8225SOL    HW224854   1.881   7.338   6.647  0.0851  0.2136  0.5505
 8226SOL     OW24855   2.133   2.906   0.828  0.2594 -0.1395  0.2202
 8226SOL    HW124856   2.208   2.944   0.773  1.5432  0.3584  2.2155
 8226SOL    HW224857   2.097   2.977   0.888  1.0787 -1.3691  2.2924
 8227SOL     OW24858   4.351   6.286   0.558  0.5198 -0.4342 -0.2147
 8227SOL    HW124859   4.265   6.336   0.566  0.8061 -0.1632  1.6410
 8227SOL    HW224860   4.346   6.223   0.480 -0.7910  0.6130 -1.0294
 8228SOL     OW24861   8.195   1.730   6.266  0.5432 -0.0098 -0.1545
 8228SOL    HW124862   8.266   1.661   6.247  0.5546  0.1918 -0.8867
 8228SOL    HW224863   8.130   1.731   6.191 -0.0915  0.0006  0.3921
 8229SOL     OW24864   8.255   4.643   0.217 -0.2417 -0.1707 -0.1700
 8229SOL    HW124865   8.219   4.735   0.229  0.6900  0.2070 -0.1857
 8229SOL    HW224866   8.231   4.587   0.296  0.4902  0.5255  0.5706
 8230SOL     OW24867   0.550   6.380   3.892  0.0309  0.2697  0.3105
 8230SOL    HW124868   0.620   6.439   3.933 -0.4835 -0.3913  2.2677
 8230SOL    HW224869   0.460   6.405   3.928 -0.8566  1.2305 -2.2993
 8231SOL     OW24870   6.380   3.144   0.614  0.8098  0.5598  0.4057
 8231SOL    HW124871   6.339   3.137   0.523  0.5490  0.9784  0.4921
 8231SOL    HW224872   6.471   3.101   0.612  0.2451 -0.6583  0.3053
 8232SOL     OW24873   5.385   8.512   0.172 -0.0914 -0.7715  0.4227
 8232SOL    HW124874   5.460   8.450   0.147  0.2514 -0.5322  0.8454
 8232SOL    HW224875   5.309   8.500   0.108  0.1014 -1.3946  0.3052
 8233SOL     OW24876   7.026   0.000   3.490  0.2047  0.0522 -0.2399
 8233SOL    HW124877   6.980   0.082   3.456 -0.6798  0.3295  1.4660
 8233SOL    HW224878   6.988  -0.024   3.580  4.7229  1.5612  2.4251
 8234SOL     OW24879   4.752   5.373   8.819 -0.2068 -0.5768  0.1152
 8234SOL    HW124880   4.813   5.437   8.868  0.1569 -0.1407 -0.8769
 8234SOL    HW224881   4.806   5.295   8.786  0.4968  1.0843 -3.1164
 8235SOL     OW24882   0.342   0.573   1.652  0.3417 -0.1251 -0.2930
 8235SOL    HW124883   0.305   0.625   1.575  0.0220  0.1136  0.0130
 8235SOL    HW224884   0.294   0.485   1.658 -0.3535  0.2760  0.2371
 8236SOL     OW24885   5.574   0.558   1.445  0.2466  0.1781 -0.7237
 8236SOL    HW124886   5.493   0.587   1.394  0.7910  0.3398 -1.5151
 8236SOL    HW224887   5.609   0.636   1.497 -0.7288 -0.1692  0.5060
 8237SOL     OW24888   2.966   6.006   5.661 -0.1157  0.1757 -0.2638
 8237SOL    HW124889   2.914   6.057   5.730  1.1925  0.5197  0.4947
 8237SOL    HW224890   3.025   6.070   5.610  2.6759 -0.6735  1.6917
 8238SOL     OW24891   3.338   6.498   8.296 -0.4511 -0.2937 -0.6684
 8238SOL    HW124892   3.351   6.525   8.392 -2.8016  0.2069 -0.4178
 8238SOL    HW224893   3.410   6.434   8.269  0.0383 -0.7632  1.5515
 8239SOL     OW24894   2.157   7.417   8.158 -0.1976  0.0100  0.4176
 8239SOL    HW124895   2.123   7.354   8.228  1.5892  0.4017  1.7148
 8239SOL    HW224896   2.202   7.495   8.202 -1.5696  1.7886 -1.1550
 8240SOL     OW24897   7.451   8.334   2.122  0.1777  0.1451 -0.0423
 8240SOL    HW124898   7.479   8.423   2.159 -0.5411  0.2713  0.2126
 8240SOL    HW224899   7.489   8.323   2.030 -0.4804  1.1245 -0.4468
 8241SOL     OW24900   4.747   7.918   6.859  0.2448  0.0734 -0.2481
 8241SOL    HW124901   4.697   7.916   6.945 -0.1933  1.4355 -0.4433
 8241SOL    HW224902   4.810   7.841   6.855  0.3054  0.0161  1.3009
 8242SOL     OW24903   5.314   0.777   8.629 -0.6126 -0.7524 -0.4610
 8242SOL    HW124904   5.284   0.717   8.555  1.0360  0.1094 -1.9129
 8242SOL    HW224905   5.252   0.855   8.637  0.0045 -0.0589 -2.0215
 8243SOL     OW24906   1.393   3.082   3.921  0.1522 -0.0996 -0.3281
 8243SOL    HW124907   1.317   3.018   3.907  1.1356 -1.5465  0.6280
 8243SOL    HW224908   1.467   3.035   3.970 -0.4893  2.6577  3.8158
 8244SOL     OW24909   0.024   1.934   7.406 -0.1456 -0.2994  0.3981
 8244SOL    HW124910   0.034   1.872   7.328 -0.4848  0.5487 -0.3423
 8244SOL    HW224911   0.093   1.913   7.475  1.2706 -0.0029 -0.8723
 8245SOL     OW24912   5.049   2.561   6.606 -0.1630 -0.3912  0.1152
 8245SOL    HW124913   5.051   2.495   6.530  0.3279  0.2363 -0.4269
 8245SOL    HW224914   4.984   2.530   6.675 -0.6679 -0.9378 -0.5935
 8246SOL     OW24915   0.184   2.318   6.958 -0.1951 -0.2350 -0.1054
 8246SOL    HW124916   0.207   2.320   6.861  0.9336  1.1467  0.1593
 8246SOL    HW224917   0.221   2.400   7.003  0.0382 -1.2522  1.6489
 8247SOL     OW24918   8.141   0.697   6.618  0.0424 -0.1515  0.1778
 8247SOL    HW124919   8.062   0.647   6.654 -1.4986  1.6856 -0.4837
 8247SOL    HW224920   8.115   0.792   6.599  2.5829  0.6729  0.4273
 8248SOL     OW24921   8.273   7.093   7.686  0.2744  0.6288  0.2096
 8248SOL    HW124922   8.237   7.183   7.709 -0.0016  0.4497  0.4882
 8248SOL    HW224923   8.198   7.032   7.661  0.0612 -0.4085  3.0151
 8249SOL     OW24924   0.422   8.133   5.727  0.2161 -0.0817  0.7104
 8249SOL    HW124925   0.332   8.117   5.687  0.3160  0.8598  0.0843
 8249SOL    HW224926   0.491   8.128   5.655  0.6810 -0.8052  1.1876
 8250SOL     OW24927   5.802   0.381   3.572 -0.1998  0.3107 -0.2008
 8250SOL    HW124928   5.809   0.305   3.507 -0.2923 -1.0567  1.3185
 8250SOL    HW224929   5.728   0.443   3.545 -0.9871 -0.8546 -0.7719
 8251SOL     OW24930   1.088   2.985   6.193  0.5694 -0.1608 -0.1941
 8251SOL    HW124931   1.129   2.919   6.255  1.2405  1.1181  0.7718
 8251SOL    HW224932   1.160   3.032   6.142  0.0766 -0.4813 -1.2248
 8252SOL     OW24933   2.378   4.543   0.160 -0.0602  0.2141  0.3532
 8252SOL    HW124934   2.324   4.625   0.142  2.0101  1.3105 -1.3971
 8252SOL    HW224935   2.362   4.476   0.088 -0.1193 -0.0076  0.5729
 8253SOL     OW24936   3.321   7.283   0.258  0.1278 -1.2574 -0.4873
 8253SOL    HW124937   3.352   7.188   0.258 -0.7854 -1.6206  1.6882
 8253SOL    HW224938   3.224   7.287   0.280  0.8035  0.2158  3.0136
 8254SOL     OW24939   4.976   2.022   0.884  0.0203  0.2197 -0.0524
 8254SOL    HW124940   5.005   1.929   0.905  0.4312 -0.3801 -2.9735
 8254SOL    HW224941   5.056   2.080   0.868 -0.2074  1.2797  2.2072
 8255SOL     OW24942   2.867   2.149   3.616  0.0689 -0.2002  0.4640
 8255SOL    HW124943   2.857   2.236   3.665 -0.0720 -0.3084  0.6288
 8255SOL    HW224944   2.778   2.115   3.587  0.3180  1.1176 -2.1194
 8256SOL     OW24945   6.998   7.144   2.752 -0.2184 -0.0263 -0.0537
 8256SOL    HW124946   6.991   7.199   2.835 -1.3350 -1.7507  1.0639
 8256SOL    HW224947   7.066   7.073   2.765  0.7365  0.6299 -1.2354
 8257SOL     OW24948   8.639   5.745   5.666  0.5853  0.2331  0.5908
 8257SOL    HW124949   8.635   5.838   5.702  2.1339  1.0436 -1.1373
 8257SOL    HW224950   8.699   5.743   5.585  0.7245 -2.3081  0.6698
 8258SOL     OW24951   4.008   2.043   2.268  0.2405 -0.4197  0.5185
 8258SOL    HW124952   4.013   2.141   2.249  0.7304 -0.6738 -0.7342
 8258SOL    HW224953   4.039   2.026   2.362  2.7276  0.3760 -0.0853
 8259SOL     OW24954   5.421   7.486   3.041  0.2062  0.1331 -0.2280
 8259SOL    HW124955   5.419   7.423   2.964  0.9420  1.3548 -1.3004
 8259SOL    HW224956   5.514   7.491   3.078 -0.0035  0.0468  0.3270
 8260SOL     OW24957   5.557   3.829   1.528 -0.3802 -0.0776  0.2929
 8260SOL    HW124958   5.628   3.890   1.562  0.9636 -0.9153 -0.9155
 8260SOL    HW224959   5.479   3.830   1.592 -0.1718  2.3873  0.6013
 8261SOL     OW24960   7.958   5.572   7.277 -0.1504 -0.5964 -0.4263
 8261SOL    HW124961   7.955   5.485   7.326 -1.5606  0.2393  1.0643
 8261SOL    HW224962   7.865   5.606   7.262  0.3739  0.8139 -0.6677
 8262SOL     OW24963   7.096   0.732   5.009  0.4486  0.0243  0.1699
 8262SOL    HW124964   7.113   0.692   5.098  1.3249 -1.2455 -0.5446
 8262SOL    HW224965   7.180   0.775   4.975  0.0488  0.7387  0.0639
 8263SOL     OW24966   2.351   5.782   0.356  0.2236 -0.5309 -0.0130
 8263SOL    HW124967   2.404   5.857   0.316  0.6562 -1.8350 -2.0581
 8263SOL    HW224968   2.397   5.695   0.336 -1.6702 -1.5518 -0.1124
 8264SOL     OW24969   6.354   5.462   4.941  0.2316  0.3086  0.1437
 8264SOL    HW124970   6.275   5.422   4.987  2.0211 -2.1242  1.3014
 8264SOL    HW224971   6.434   5.403   4.954  2.1332  2.3597 -1.4744
 8265SOL     OW24972   2.528   6.468   0.718 -0.0698  0.0236  0.0111
 8265SOL    HW124973   2.476   6.520   0.650 -0.1830 -0.1075 -0.0042
 8265SOL    HW224974   2.622   6.502   0.721  0.2452 -0.6827 -1.0104
 8266SOL     OW24975   6.769   4.012   7.861 -0.4664 -0.2818 -0.1304
 8266SOL    HW124976   6.834   4.034   7.933 -2.0535  0.4901  1.1499
 8266SOL    HW224977   6.795   3.926   7.816  1.6306  0.2347  0.0083
 8267SOL     OW24978   8.775   8.180   8.059 -0.3748  0.0284 -0.1317
 8267SOL    HW124979   8.685   8.208   8.025 -0.9860 -0.5398  0.9463
 8267SOL    HW224980   8.785   8.210   8.154 -0.7348 -2.5859  0.8173
 8268SOL     OW24981   2.833   3.040   1.221 -0.1621 -0.0253 -0.0785
 8268SOL    HW124982   2.739   3.041   1.186  0.0916 -0.9825 -0.8217
 8268SOL    HW224983   2.849   2.955   1.271  0.9635 -0.9214 -1.8659
 8269SOL     OW24984   1.156   5.961   5.078 -0.2650  0.0094  0.2971
 8269SOL    HW124985   1.081   5.899   5.100 -0.8944  0.8776  0.6193
 8269SOL    HW224986   1.225   5.957   5.150 -0.6046  0.1495  0.6335
 8270SOL     OW24987   1.239   6.246   3.562 -0.2917  0.2039  0.1931
 8270SOL    HW124988   1.294   6.162   3.560 -0.4333  0.1146 -1.3793
 8270SOL    HW224989   1.207   6.263   3.655  2.1020  0.0797  1.1038
 8271SOL     OW24990   5.214   5.241   0.933 -0.0385  0.0288  0.3023
 8271SOL    HW124991   5.202   5.194   0.846  0.9008  0.4922 -0.0975
 8271SOL    HW224992   5.193   5.338   0.922 -2.5099 -0.3243  1.2572
 8272SOL     OW24993   8.358   5.273   7.207 -0.7228  0.5223 -0.3427
 8272SOL    HW124994   8.422   5.197   7.194  0.6810  1.9177 -2.1110
 8272SOL    HW224995   8.360   5.302   7.303 -0.5483 -1.0184  0.1446
 8273SOL     OW24996   2.814   7.465   5.825  0.3282 -0.1042 -0.3417
 8273SOL    HW124997   2.770   7.400   5.888  1.4132 -2.3274 -1.7248
 8273SOL    HW224998   2.743   7.518   5.778 -0.9436 -2.6407 -1.5228
 8274SOL     OW24999   8.422   5.784   0.732  0.0044 -0.2198 -0.1562
 8274SOL    HW125000   8.451   5.714   0.798 -0.0361 -1.0386 -0.9918
 8274SOL    HW225001   8.444   5.875   0.769  0.7740 -0.6925  0.6031
 8275SOL     OW25002   1.855   6.795   4.294 -0.1065  0.1490 -0.0581
 8275SOL    HW125003   1.933   6.761   4.346 -0.6369 -2.8716 -1.0292
 8275SOL    HW225004   1.792   6.842   4.355  0.7835 -0.4963  1.4101
 8276SOL     OW25005   3.123   4.099   2.058 -0.3009  0.3313  0.1445
 8276SOL    HW125006   3.204   4.043   2.076 -1.7148 -1.7499  0.3744
 8276SOL    HW225007   3.057   4.046   2.005 -1.3586  2.1247 -0.4125
 8277SOL     OW25008   2.540   1.635   1.881 -0.5556 -0.5667 -0.5318
 8277SOL    HW125009   2.619   1.576   1.860 -0.0271  0.3146 -1.0647
 8277SOL    HW225010   2.562   1.692   1.960 -1.4458 -1.7784  0.6238
 8278SOL     OW25011   7.418   2.007   0.629 -0.5238 -0.0063  0.1368
 8278SOL    HW125012   7.406   1.915   0.591 -0.1010  0.6071 -1.5429
 8278SOL    HW225013   7.485   2.003   0.703 -1.2390 -1.1981  0.7554
 8279SOL     OW25014   5.437   3.485   6.367  0.6225 -0.1426 -0.1108
 8279SOL    HW125015   5.386   3.505   6.450  0.7700 -1.5293  0.3351
 8279SOL    HW225016   5.374   3.451   6.296  0.8898 -2.1256  0.5302
 8280SOL     OW25017   1.511   6.755   2.643 -0.4887  0.1319  0.0108
 8280SOL    HW125018   1.522   6.846   2.681 -0.8541 -0.4364  1.5373
 8280SOL    HW225019   1.593   6.700   2.663  0.9500  0.8399 -3.2123
 8281SOL     OW25020   0.940   7.594   4.484  0.1810  0.2525  0.0706
 8281SOL    HW125021   0.989   7.679   4.506 -0.6866  1.0655 -0.9967
 8281SOL    HW225022   0.852   7.617   4.442 -0.3692 -1.1842  0.3900
 8282SOL     OW25023   0.423   6.159   1.514  0.3799 -0.0773  0.1704
 8282SOL    HW125024   0.510   6.111   1.504  0.3277 -0.6547  2.0417
 8282SOL    HW225025   0.439   6.257   1.507  1.4853 -0.0765  1.8914
 8283SOL     OW25026   8.132   8.022   1.396 -0.5175  0.3054 -0.7107
 8283SOL    HW125027   8.110   8.083   1.319  1.9230  1.9627 -0.2376
 8283SOL    HW225028   8.124   8.073   1.482  3.1290  0.6641 -0.4024
 8284SOL     OW25029   1.084   2.595   2.239 -0.0575 -0.0268  0.3539
 8284SOL    HW125030   1.014   2.536   2.199  0.5048  1.0835 -2.5349
 8284SOL    HW225031   1.056   2.691   2.229  1.5903  0.4141 -0.3805
 8285SOL     OW25032   0.089   7.322   3.342 -0.6833  0.1832 -0.1271
 8285SOL    HW125033   0.153   7.301   3.269 -2.3588  2.2493 -2.3710
 8285SOL    HW225034   0.022   7.248   3.350 -1.7567  0.8386 -2.2901
 8286SOL     OW25035   6.924   4.536   8.590  0.2892 -0.3376  0.5721
 8286SOL    HW125036   7.022   4.536   8.609  0.5862  1.8344 -0.5681
 8286SOL    HW225037   6.901   4.461   8.528  1.5921  0.2390 -0.6537
 8287SOL     OW25038   8.308   5.649   0.316  0.0194  0.5801  0.4967
 8287SOL    HW125039   8.218   5.655   0.359 -0.3180  1.4660 -0.2920
 8287SOL    HW225040   8.309   5.575   0.250 -0.5867  1.4251 -0.4863
 8288SOL     OW25041   5.789   4.483   6.830 -0.1294 -0.3179 -0.0413
 8288SOL    HW125042   5.793   4.532   6.917  0.2836  2.0276 -1.2849
 8288SOL    HW225043   5.881   4.457   6.802 -0.3039 -1.4478  0.3970
 8289SOL     OW25044   7.946   0.929   5.478 -0.0095  0.2617  0.4859
 8289SOL    HW125045   8.009   0.923   5.555  0.6341  0.1140 -0.0442
 8289SOL    HW225046   7.988   0.982   5.404 -0.3487 -0.1562 -0.0152
 8290SOL     OW25047   1.448   4.286   4.022 -0.4688  0.2784 -0.2637
 8290SOL    HW125048   1.546   4.267   4.021 -0.6814 -1.0758  0.9588
 8290SOL    HW225049   1.424   4.330   4.109 -1.1272 -0.6393  0.0383
 8291SOL     OW25050   4.965   4.425   2.917 -0.2088 -0.0294 -0.5765
 8291SOL    HW125051   5.048   4.405   2.969 -0.3997  0.4422 -0.0806
 8291SOL    HW225052   4.885   4.409   2.974 -0.3971  1.2527 -0.4496
 8292SOL     OW25053   1.553   1.227   0.577  0.4754 -0.3396 -0.2019
 8292SOL    HW125054   1.514   1.236   0.669 -1.6763 -2.3081 -0.8399
 8292SOL    HW225055   1.646   1.263   0.578  0.8534 -1.0534  2.9749
 8293SOL     OW25056   5.273   5.523   0.141 -0.0840 -0.2646 -0.6675
 8293SOL    HW125057   5.306   5.615   0.119 -0.1307 -0.5268 -1.9217
 8293SOL    HW225058   5.313   5.458   0.077  0.3880 -1.2159  0.5591
 8294SOL     OW25059   5.091   7.669   8.806  0.4041  0.5324 -0.1439
 8294SOL    HW125060   5.047   7.580   8.792  0.9819 -0.0914  1.7986
 8294SOL    HW225061   5.188   7.656   8.825  0.2074  1.4339  1.6628
 8295SOL     OW25062   2.349   7.685   5.444 -0.1580  0.0914  0.5461
 8295SOL    HW125063   2.356   7.630   5.527  0.3657  0.0205  0.4564
 8295SOL    HW225064   2.354   7.782   5.468 -0.7059  0.0941  0.6650
 8296SOL     OW25065   7.061   5.226   4.631 -0.0906  0.1601  0.3707
 8296SOL    HW125066   7.077   5.303   4.569  0.4670 -0.8185 -0.7573
 8296SOL    HW225067   7.079   5.140   4.582 -2.5006 -0.7888  1.0013
 8297SOL     OW25068   0.331   5.699   0.986  0.0013 -0.7008 -0.1466
 8297SOL    HW125069   0.422   5.682   1.023 -0.6276 -0.0980  1.7685
 8297SOL    HW225070   0.340   5.746   0.898  1.5332 -1.1686 -0.2779
 8298SOL     OW25071   7.663   7.228   3.706  0.7722 -0.0354 -0.1791
 8298SOL    HW125072   7.755   7.235   3.670  0.0873  0.5620 -1.9115
 8298SOL    HW225073   7.609   7.167   3.649 -0.6926  1.8962 -0.9799
 8299SOL     OW25074   6.324   3.548   7.191  0.1260  0.5453  0.0636
 8299SOL    HW125075   6.343   3.509   7.100 -2.7742  0.0930 -0.4573
 8299SOL    HW225076   6.329   3.476   7.260 -3.6338 -0.6455 -0.6803
 8300SOL     OW25077   1.724   5.634   5.728  0.0465 -0.1940 -0.4894
 8300SOL    HW125078   1.801   5.654   5.668 -1.4759  1.0776 -2.1436
 8300SOL    HW225079   1.641   5.678   5.692 -1.4077 -1.2373  1.3706
 8301SOL     OW25080   5.664   4.278   7.425 -0.1380 -0.1557 -0.4637
 8301SOL    HW125081   5.724   4.348   7.386 -1.0243  0.2006 -1.2222
 8301SOL    HW225082   5.713   4.191   7.428  1.0716  0.5157  0.7238
 8302SOL     OW25083   5.413   8.301   1.218 -0.0987  0.1872  0.4043
 8302SOL    HW125084   5.404   8.387   1.268  1.0388  0.8978 -0.5494
 8302SOL    HW225085   5.406   8.224   1.281 -1.0762  0.9638  1.2842
 8303SOL     OW25086   8.246   6.307   6.596 -0.0272 -0.2654 -0.3788
 8303SOL    HW125087   8.296   6.239   6.542  0.8930  0.0500  0.0363
 8303SOL    HW225088   8.244   6.394   6.547  0.6318 -0.0352 -0.0178
 8304SOL     OW25089   1.513   5.993   0.595 -0.8822 -0.2600 -0.1532
 8304SOL    HW125090   1.505   6.087   0.627 -2.3272 -0.4790  0.2057
 8304SOL    HW225091   1.452   5.979   0.516  1.5939 -0.0944 -2.2231
 8305SOL     OW25092   5.006   1.753   0.964 -0.1667 -0.0736 -0.2644
 8305SOL    HW125093   4.914   1.739   1.002 -0.1231  1.9436  0.6996
 8305SOL    HW225094   5.007   1.724   0.868 -1.7071 -0.4175 -0.2100
 8306SOL     OW25095   5.414   6.805   3.476  0.0958 -0.0904 -0.4624
 8306SOL    HW125096   5.484   6.745   3.437 -1.0018 -0.1187 -2.5659
 8306SOL    HW225097   5.325   6.779   3.441 -0.6599  1.5380  0.1409
 8307SOL     OW25098   1.639   6.621   5.321  0.0864 -0.0557 -0.9206
 8307SOL    HW125099   1.583   6.703   5.314 -2.1337 -0.9114  3.2704
 8307SOL    HW225100   1.712   6.624   5.253 -0.9616  4.4228 -2.1651
 8308SOL     OW25101   6.715   3.273   4.310  0.0352 -0.7648 -0.0031
 8308SOL    HW125102   6.675   3.294   4.221 -1.4850 -1.1592  0.5623
 8308SOL    HW225103   6.760   3.355   4.347 -2.0048  0.3175  0.2167
 8309SOL     OW25104   2.815   4.345   7.275  0.1660 -0.2531 -0.3317
 8309SOL    HW125105   2.784   4.440   7.277  0.4148 -0.0937 -2.0957
 8309SOL    HW225106   2.820   4.314   7.180  2.1122 -1.3675  0.0820
 8310SOL     OW25107   7.435   3.606   8.695  0.5293 -0.4729 -0.0967
 8310SOL    HW125108   7.414   3.663   8.616  1.2675 -0.6337 -0.4249
 8310SOL    HW225109   7.515   3.643   8.743  0.1843 -0.4663  0.4863
 8311SOL     OW25110   4.056   5.515   1.102 -0.1891 -0.2128 -0.5659
 8311SOL    HW125111   4.087   5.517   1.007  0.5805 -0.7670 -0.3317
 8311SOL    HW225112   3.965   5.474   1.107  0.1186 -0.9447 -0.9639
 8312SOL     OW25113   0.136   1.242   6.538  0.3977  0.1859  0.1703
 8312SOL    HW125114   0.214   1.181   6.557  2.0409  1.7455 -1.1800
 8312SOL    HW225115   0.067   1.231   6.609  0.8311 -2.8476  0.2573
 8313SOL     OW25116   0.136   8.638   0.684  0.0826 -0.1207  0.3024
 8313SOL    HW125117   0.092   8.571   0.625  0.9729  0.5194 -1.1258
 8313SOL    HW225118   0.224   8.665   0.646 -0.1031  1.6490  0.9775
 8314SOL     OW25119   2.728   5.950   2.976  1.4631  0.0049  0.1860
 8314SOL    HW125120   2.648   6.004   2.951  0.4245 -0.7854  1.6027
 8314SOL    HW225121   2.721   5.859   2.935  1.1808 -0.3468  0.9887
 8315SOL     OW25122   7.507   1.490   3.152 -0.1104 -0.2073  0.3633
 8315SOL    HW125123   7.606   1.503   3.140  0.1499 -2.9662 -1.5159
 8315SOL    HW225124   7.460   1.522   3.070 -0.4201 -1.6129 -0.0350
 8316SOL     OW25125   5.512   0.068   5.640 -0.0696  0.0162 -0.0170
 8316SOL    HW125126   5.526   0.020   5.726  1.5532  0.5704  0.0653
 8316SOL    HW225127   5.427   0.037   5.597  0.0919 -1.6818  0.8305
 8317SOL     OW25128   7.441   5.682   6.502  0.0955 -0.6387  0.3606
 8317SOL    HW125129   7.441   5.774   6.465 -3.3880 -0.1915  1.1320
 8317SOL    HW225130   7.434   5.616   6.427 -1.0324 -0.0505 -0.0740
 8318SOL     OW25131   6.249   2.157   4.367 -0.0830  0.1108 -0.2398
 8318SOL    HW125132   6.292   2.196   4.286  0.9174 -0.4502 -0.0054
 8318SOL    HW225133   6.184   2.222   4.406  0.2828  0.8350 -0.8345
 8319SOL     OW25134   8.443   7.837   3.971 -0.4274 -0.6404  0.3108
 8319SOL    HW125135   8.423   7.745   3.936  0.0133 -0.4446 -0.4670
 8319SOL    HW225136   8.513   7.880   3.914 -0.5526  0.1406  0.7377
 8320SOL     OW25137   0.052   0.611   5.920 -0.2615 -0.3584 -0.5301
 8320SOL    HW125138   0.040   0.651   5.830 -0.9689  0.9984  0.1398
 8320SOL    HW225139  -0.037   0.606   5.966  0.3375  0.6251  0.7670
 8321SOL     OW25140   4.511   4.675   0.410 -0.2968  0.2499 -0.2364
 8321SOL    HW125141   4.494   4.690   0.507 -1.2556  1.0393 -0.5041
 8321SOL    HW225142   4.474   4.587   0.382 -0.3326  0.1773  0.0392
 8322SOL     OW25143   2.800   5.893   1.284  0.4956  0.0490  0.5430
 8322SOL    HW125144   2.783   5.857   1.192 -0.3827  1.3392  0.1687
 8322SOL    HW225145   2.856   5.976   1.277 -2.8609  2.5527  0.6907
 8323SOL     OW25146   8.622   7.143   4.828  0.4091 -0.1228  0.2075
 8323SOL    HW125147   8.527   7.171   4.811 -0.4823 -2.0255  1.7104
 8323SOL    HW225148   8.650   7.077   4.759  0.4011 -0.0944  0.1771
 8324SOL     OW25149   3.927   3.931   2.558  0.2315 -0.1988 -0.1934
 8324SOL    HW125150   3.932   3.831   2.557  1.8020 -0.1976  1.9688
 8324SOL    HW225151   3.937   3.965   2.464  4.2614 -1.9562 -0.5986
 8325SOL     OW25152   7.461   3.120   0.733 -0.2402  0.0394  0.0332
 8325SOL    HW125153   7.492   3.071   0.815 -0.3344 -1.0400 -0.5611
 8325SOL    HW225154   7.490   3.070   0.652 -1.3322  0.3694 -0.5758
 8326SOL     OW25155   2.600   0.895   4.310  0.1973 -0.0589  0.4437
 8326SOL    HW125156   2.600   0.799   4.285  0.4950  0.1755 -0.4979
 8326SOL    HW225157   2.692   0.924   4.334  0.1795  0.0837  0.3458
 8327SOL     OW25158   4.538   5.488   6.830 -0.3989 -0.0526  0.0679
 8327SOL    HW125159   4.475   5.415   6.859 -0.7915 -0.4291 -1.6268
 8327SOL    HW225160   4.502   5.532   6.748 -0.2754  2.2456  1.1881
 8328SOL     OW25161   3.724   0.174   0.264 -0.1901 -0.2160 -0.4045
 8328SOL    HW125162   3.632   0.202   0.291  0.6196  1.8876  0.3501
 8328SOL    HW225163   3.755   0.231   0.188  0.8638 -0.2187  0.0109
 8329SOL     OW25164   3.227   8.838   2.971 -0.0082 -0.2154 -0.3025
 8329SOL    HW125165   3.205   8.908   2.903 -1.0285 -0.5216 -0.3015
 8329SOL    HW225166   3.170   8.853   3.052 -1.9698 -2.3891 -1.1691
 8330SOL     OW25167   6.685   3.316   6.898  0.2736  0.0763  0.1005
 8330SOL    HW125168   6.742   3.396   6.918 -1.4246  0.7095  2.9796
 8330SOL    HW225169   6.720   3.237   6.950 -0.7931  0.2043  1.0459
 8331SOL     OW25170   1.843   4.294   5.923 -0.4445 -0.1332 -0.5083
 8331SOL    HW125171   1.854   4.327   5.830  3.0542  0.7686  0.0811
 8331SOL    HW225172   1.770   4.345   5.968 -0.6133  1.0492 -2.0563
 8332SOL     OW25173   3.066   1.583   3.678 -0.0765  0.2461 -0.0977
 8332SOL    HW125174   3.094   1.569   3.772 -1.7927 -0.2390  0.3818
 8332SOL    HW225175   3.082   1.499   3.625  0.2443  0.2869 -0.0646
 8333SOL     OW25176   2.414   6.118   1.183  0.3546 -0.3839  0.4904
 8333SOL    HW125177   2.423   6.020   1.165 -0.5427 -0.6523  1.3844
 8333SOL    HW225178   2.493   6.150   1.235  1.7055 -0.1453 -1.6017
 8334SOL     OW25179   6.618   0.737   2.482  0.4702 -0.5655  0.0091
 8334SOL    HW125180   6.530   0.691   2.487  0.7191 -1.2946 -1.8298
 8334SOL    HW225181   6.659   0.723   2.392  2.4055 -0.1104  0.7652
 8335SOL     OW25182   0.525   3.593   8.431 -0.0936  0.0072  0.2293
 8335SOL    HW125183   0.562   3.502   8.448  1.2351  0.5097  0.1418
 8335SOL    HW225184   0.539   3.650   8.512 -0.3924  0.2947  0.0805
 8336SOL     OW25185   1.267   3.647   4.598 -0.1139  0.5952  0.1086
 8336SOL    HW125186   1.252   3.549   4.583  0.3202  0.4083  0.8903
 8336SOL    HW225187   1.365   3.667   4.595 -0.1405  0.8490  0.9135
 8337SOL     OW25188   2.352   1.460   0.039  0.3530 -0.3026 -0.6400
 8337SOL    HW125189   2.350   1.443  -0.060  0.1994  1.8994 -1.0698
 8337SOL    HW225190   2.426   1.524   0.060 -0.9572  0.9669  0.3266
 8338SOL     OW25191   2.407   5.576   4.303  0.4292  0.0946 -0.2293
 8338SOL    HW125192   2.355   5.516   4.364  0.4132 -0.7905 -1.1126
 8338SOL    HW225193   2.344   5.634   4.252  0.3782 -0.0663 -0.3488
 8339SOL     OW25194   6.607   1.542   5.345  0.2206 -0.0216 -0.2965
 8339SOL    HW125195   6.597   1.519   5.249 -0.9359  1.8525 -0.6723
 8339SOL    HW225196   6.572   1.468   5.402 -1.0436 -0.2767 -1.3678
 8340SOL     OW25197   7.438   5.727   7.001  0.6221 -0.1637  0.1489
 8340SOL    HW125198   7.460   5.678   6.917 -1.5472  2.1311 -1.9303
 8340SOL    HW225199   7.516   5.784   7.029  1.5723 -1.4051  0.0831
 8341SOL     OW25200   2.182   3.005   4.426 -0.3903  0.1936  0.1732
 8341SOL    HW125201   2.133   3.039   4.506 -1.0568 -0.3335 -0.0039
 8341SOL    HW225202   2.220   3.082   4.375  0.3680  0.5213  1.1946
 8342SOL     OW25203   6.117   4.506   3.044 -0.0688  0.4504  0.1374
 8342SOL    HW125204   6.140   4.416   3.007 -0.3850  0.1062  0.7568
 8342SOL    HW225205   6.175   4.575   3.002  1.2955 -0.2394  0.8312
 8343SOL     OW25206   1.297   7.391   0.542  0.0967  0.0349  0.6320
 8343SOL    HW125207   1.300   7.312   0.480 -0.9387  0.2878  0.2496
 8343SOL    HW225208   1.223   7.452   0.515  0.7283  1.0245  1.0775
 8344SOL     OW25209   1.952   5.982   6.177  0.4885 -0.2417  0.3632
 8344SOL    HW125210   2.013   5.935   6.242  1.7226  1.2834  0.3513
 8344SOL    HW225211   1.938   5.923   6.097 -0.7834 -2.0138  1.7908
 8345SOL     OW25212   0.881   2.241   1.491  0.0154 -0.0287 -0.1641
 8345SOL    HW125213   0.954   2.193   1.444 -1.0190  0.0782 -1.9599
 8345SOL    HW225214   0.835   2.303   1.427 -2.2655 -0.8025  0.6115
 8346SOL     OW25215   0.368   3.368   2.303  0.1968 -0.4548 -0.4073
 8346SOL    HW125216   0.394   3.272   2.292 -0.8074 -1.0633  1.9381
 8346SOL    HW225217   0.269   3.377   2.294  0.4627  0.7861 -2.8543
 8347SOL     OW25218   4.044   1.726   6.446  0.3068 -0.5906 -0.4468
 8347SOL    HW125219   4.010   1.654   6.386  1.7563 -0.0652 -1.9509
 8347SOL    HW225220   4.017   1.705   6.541  1.7108 -3.7897 -0.6054
 8348SOL     OW25221   8.252   3.569   5.374 -0.0041  0.2173 -0.4484
 8348SOL    HW125222   8.341   3.567   5.328  0.1474  0.3939 -0.1681
 8348SOL    HW225223   8.266   3.565   5.473 -0.3355 -0.3732 -0.4186
 8349SOL     OW25224   2.346   8.255   0.383 -0.1766 -0.4635 -0.2087
 8349SOL    HW125225   2.414   8.209   0.325 -0.4780 -0.6367 -0.4219
 8349SOL    HW225226   2.276   8.189   0.411  0.4998 -0.6495  1.1833
 8350SOL     OW25227   8.262   0.174   6.024 -0.2521 -0.1412  0.2501
 8350SOL    HW125228   8.282   0.090   6.074  3.1747 -0.0295 -0.7188
 8350SOL    HW225229   8.267   0.252   6.086 -0.7859 -0.3908  0.6164
 8351SOL     OW25230   8.611   1.070   8.691 -0.0796 -0.3070  0.1679
 8351SOL    HW125231   8.696   1.117   8.719  0.8883 -0.3870 -2.3654
 8351SOL    HW225232   8.626   0.972   8.693 -0.1256 -0.3222 -0.2247
 8352SOL     OW25233   1.057   1.865   8.780 -0.8392 -0.6281 -0.3807
 8352SOL    HW125234   1.084   1.807   8.703  0.2427  0.1609 -0.6309
 8352SOL    HW225235   1.071   1.815   8.866  2.4360 -0.0010 -0.4266
 8353SOL     OW25236   6.188   4.189   8.728 -0.3755  1.0315  0.2721
 8353SOL    HW125237   6.252   4.159   8.658  0.4916  3.6147 -0.1628
 8353SOL    HW225238   6.215   4.151   8.817 -1.4403 -2.2036 -0.6400
 8354SOL     OW25239   7.695   2.519   1.458  0.0664 -0.2642  0.6004
 8354SOL    HW125240   7.793   2.535   1.473  0.0426 -0.0744  0.5596
 8354SOL    HW225241   7.658   2.590   1.398 -0.5606  0.9287  2.3295
 8355SOL     OW25242   6.481   2.116   7.719 -0.1620 -0.6451  0.3821
 8355SOL    HW125243   6.571   2.115   7.762 -0.3267 -0.8109  0.7287
 8355SOL    HW225244   6.411   2.129   7.789 -0.3230  0.9855 -0.0569
 8356SOL     OW25245   5.787   1.754   7.464 -0.0810 -0.1798 -0.1996
 8356SOL    HW125246   5.779   1.845   7.423 -1.5230 -0.4339 -0.5373
 8356SOL    HW225247   5.862   1.704   7.421  1.3509  1.1686  0.6391
 8357SOL     OW25248   7.964   8.172   4.937  0.2541  0.6283  0.3292
 8357SOL    HW125249   8.004   8.109   4.870 -2.8862  0.1894 -1.3322
 8357SOL    HW225250   7.941   8.259   4.891 -2.6955  0.0318  0.5072
 8358SOL     OW25251   7.613   0.022   7.407  0.4921  0.2212  0.7345
 8358SOL    HW125252   7.631   0.051   7.501  0.2029  0.9070  0.5878
 8358SOL    HW225253   7.516   0.001   7.397  0.4280  0.6197  0.4759
 8359SOL     OW25254   6.588   6.159   1.135 -0.1443 -0.7854 -0.4523
 8359SOL    HW125255   6.534   6.176   1.053  0.4372 -0.3979 -0.7617
 8359SOL    HW225256   6.529   6.121   1.207 -0.2013 -3.3585 -1.7745
 8360SOL     OW25257   4.431   2.405   0.697 -0.1545 -0.0516 -1.0319
 8360SOL    HW125258   4.343   2.434   0.733  0.2226 -0.5725  0.4169
 8360SOL    HW225259   4.501   2.419   0.767  0.6240 -1.1666 -1.5546
 8361SOL     OW25260   7.201   2.634   4.323  0.3089 -0.4422 -0.1026
 8361SOL    HW125261   7.229   2.691   4.246 -2.1086 -0.6552 -1.2515
 8361SOL    HW225262   7.271   2.566   4.342  0.0564 -1.9142 -3.7278
 8362SOL     OW25263   4.169   4.770   1.435  0.0472 -0.3256  0.0517
 8362SOL    HW125264   4.132   4.677   1.441 -2.2946  0.5292 -0.4537
 8362SOL    HW225265   4.114   4.832   1.489  1.6325  0.8065  0.4393
 8363SOL     OW25266   2.077   3.733   2.925 -0.2761  0.8870 -0.2378
 8363SOL    HW125267   2.073   3.802   2.853  0.4847  0.1378 -1.0280
 8363SOL    HW225268   2.010   3.661   2.904  0.5299  0.2494 -0.6621
 8364SOL     OW25269   2.187   5.540   8.071  0.4191 -0.5430 -0.0654
 8364SOL    HW125270   2.264   5.510   8.014  1.4138 -0.8032  1.3711
 8364SOL    HW225271   2.171   5.637   8.055  1.2664 -0.4017 -0.1457
 8365SOL     OW25272   6.478   7.901   1.694 -0.2051  0.0646  0.3196
 8365SOL    HW125273   6.493   7.938   1.602  2.2259  1.0835  1.0656
 8365SOL    HW225274   6.435   7.970   1.751  0.4551  0.2697  0.5741
 8366SOL     OW25275   2.889   8.362   8.050  0.5779 -0.1330 -0.2141
 8366SOL    HW125276   2.824   8.436   8.069 -0.1531 -0.9321  0.5006
 8366SOL    HW225277   2.949   8.349   8.128 -1.4882 -2.4699  1.0926
 8367SOL     OW25278   5.544   5.673   0.840 -0.1483  0.4907 -0.8180
 8367SOL    HW125279   5.572   5.642   0.931  2.5971  0.9896 -1.3920
 8367SOL    HW225280   5.571   5.605   0.772 -0.1595  1.1143 -1.4560
 8368SOL     OW25281   3.360   7.816   3.834 -0.0525 -0.2959 -0.5775
 8368SOL    HW125282   3.274   7.846   3.793 -0.4951 -1.2819 -0.3982
 8368SOL    HW225283   3.353   7.720   3.861  0.6157  0.0206  0.7978
 8369SOL     OW25284   1.864   6.769   1.091 -0.4486  0.1905  0.0118
 8369SOL    HW125285   1.837   6.762   1.187 -0.5715  0.5961  0.0085
 8369SOL    HW225286   1.795   6.725   1.033 -0.1823 -0.4020  0.1313
 8370SOL     OW25287   7.270   3.853   1.264 -0.3147  0.1886 -0.4837
 8370SOL    HW125288   7.306   3.793   1.193  0.4843  1.4534 -1.2079
 8370SOL    HW225289   7.346   3.898   1.311 -0.8813  1.6179 -0.8736
 8371SOL     OW25290   7.116   7.229   2.516  0.4914  0.3083  0.1211
 8371SOL    HW125291   7.066   7.195   2.596 -2.4558  1.8502 -0.9019
 8371SOL    HW225292   7.206   7.186   2.513 -0.2167 -1.7144  2.8356
 8372SOL     OW25293   3.134   1.827   3.562 -0.0911  0.0391  0.0261
 8372SOL    HW125294   3.123   1.748   3.623 -2.3847 -0.0119 -0.3812
 8372SOL    HW225295   3.054   1.836   3.504  0.1347  2.6550 -0.0027
 8373SOL     OW25296   7.199   8.166   2.899  0.3025 -0.0085  0.1646
 8373SOL    HW125297   7.134   8.096   2.929 -0.2143  0.6753  0.6747
 8373SOL    HW225298   7.150   8.252   2.884  1.1206  0.5730  0.7710
 8374SOL     OW25299   8.789   1.824   1.920  0.3916  0.1311 -0.6947
 8374SOL    HW125300   8.715   1.794   1.979  1.0742 -1.0783 -0.3982
 8374SOL    HW225301   8.858   1.873   1.974  0.0338  0.8615 -0.8880
 8375SOL     OW25302   1.658   3.897   4.141 -0.2716 -0.3641 -0.1300
 8375SOL    HW125303   1.718   3.847   4.203 -0.0148  1.5872  1.3055
 8375SOL    HW225304   1.714   3.952   4.078 -0.5443 -1.7364 -1.6240
 8376SOL     OW25305   1.318   3.097   7.087  0.1142 -0.1801  0.4545
 8376SOL    HW125306   1.276   3.151   7.015  1.8770 -0.7718 -1.1119
 8376SOL    HW225307   1.379   3.155   7.141  1.3548 -0.3660 -0.6909
 8377SOL     OW25308   8.176   0.003   4.677  0.3263 -0.3400 -0.9859
 8377SOL    HW125309   8.211   0.097   4.677 -1.3024  0.3062 -0.3683
 8377SOL    HW225310   8.171  -0.031   4.583 -0.0909  0.6154 -1.3264
 8378SOL     OW25311   7.741   1.493   8.017  0.0692 -0.0588  0.1311
 8378SOL    HW125312   7.650   1.461   8.044 -1.2235  2.0341 -1.4768
 8378SOL    HW225313   7.736   1.538   7.928  2.9991 -1.1813 -0.7229
 8379SOL     OW25314   2.052   6.223   7.942  0.2316 -0.1440 -0.0350
 8379SOL    HW125315   2.133   6.282   7.949 -0.5704  1.0648 -0.7014
 8379SOL    HW225316   1.986   6.250   8.013 -1.5915  2.1530 -2.4022
 8380SOL     OW25317   4.296   3.289   7.215  0.1453 -0.3129 -0.7852
 8380SOL    HW125318   4.271   3.376   7.256  0.2472  0.0611 -1.4947
 8380SOL    HW225319   4.387   3.297   7.173  0.2833 -0.8493 -0.5996
 8381SOL     OW25320   5.364   6.771   1.151  0.6006 -0.1892  0.1405
 8381SOL    HW125321   5.301   6.768   1.073  0.6924  1.4576 -0.0418
 8381SOL    HW225322   5.458   6.758   1.119  0.4351 -2.1173  0.3442
 8382SOL     OW25323   4.987   7.173   5.271  0.5803 -0.4261  0.1659
 8382SOL    HW125324   4.980   7.079   5.304  2.1384 -1.1048 -1.2785
 8382SOL    HW225325   4.917   7.190   5.202 -0.0815 -0.3339  0.8613
 8383SOL     OW25326   6.463   2.622   7.657  0.2182  0.1487 -0.1074
 8383SOL    HW125327   6.544   2.627   7.717  1.4759 -2.0293 -1.4974
 8383SOL    HW225328   6.492   2.600   7.564 -1.9724 -0.0650 -0.7939
 8384SOL     OW25329   8.676   6.056   5.836 -0.2297 -0.0452  0.2644
 8384SOL    HW125330   8.679   6.134   5.898 -0.3449  0.0489  0.1544
 8384SOL    HW225331   8.620   6.080   5.756 -1.0240 -0.5574  0.6581
 8385SOL     OW25332   6.959   5.191   1.664 -0.2561  0.0472  0.0937
 8385SOL    HW125333   7.040   5.211   1.720  0.1628 -3.1627  0.8306
 8385SOL    HW225334   6.876   5.207   1.718  0.1086 -1.8664  1.2957
 8386SOL     OW25335   5.388   5.997   7.411 -0.8413 -0.0309 -0.3915
 8386SOL    HW125336   5.352   5.946   7.489  0.1984 -0.7295 -0.3514
 8386SOL    HW225337   5.393   6.094   7.435  0.6029 -0.3814  0.8811
 8387SOL     OW25338   5.982   8.154   3.886  0.6435  0.5754 -0.2285
 8387SOL    HW125339   5.912   8.183   3.821  2.1574  1.4421 -1.5381
 8387SOL    HW225340   6.006   8.059   3.868  0.5765  0.6055 -0.4844
 8388SOL     OW25341   0.637   7.586   0.518  0.0061 -0.2235 -0.5111
 8388SOL    HW125342   0.555   7.644   0.523  0.9832  1.4568 -2.3530
 8388SOL    HW225343   0.712   7.631   0.567  0.6342 -0.1910 -1.4892
 8389SOL     OW25344   7.803   6.093   4.507  0.0487  0.0193 -0.0661
 8389SOL    HW125345   7.892   6.078   4.550 -0.5559 -1.7637  0.6097
 8389SOL    HW225346   7.735   6.117   4.576 -0.1071  1.0276 -0.5376
 8390SOL     OW25347   6.385   6.349   6.687 -0.3746  0.2097  0.4260
 8390SOL    HW125348   6.367   6.256   6.656 -1.9471  0.0523  1.6796
 8390SOL    HW225349   6.426   6.402   6.612  0.4394 -1.4269 -0.3390
 8391SOL     OW25350   4.498   0.665   3.994 -0.2529 -0.5297 -0.2669
 8391SOL    HW125351   4.498   0.739   4.061  1.0535 -0.7345 -0.0100
 8391SOL    HW225352   4.568   0.598   4.018  0.0029 -0.7942 -1.6320
 8392SOL     OW25353   3.271   0.181   0.862  0.2737  0.1296 -0.5270
 8392SOL    HW125354   3.240   0.104   0.918  1.5450 -0.3515 -0.4423
 8392SOL    HW225355   3.249   0.162   0.766  1.7058 -0.9801 -0.6751
 8393SOL     OW25356   1.676   3.953   2.180 -0.4887  0.3584  0.7635
 8393SOL    HW125357   1.738   4.016   2.134  0.5463 -0.6423  0.7311
 8393SOL    HW225358   1.721   3.864   2.192 -1.8273 -0.3233  0.9912
 8394SOL     OW25359   1.766   2.664   8.595  0.0100 -0.3465  0.6479
 8394SOL    HW125360   1.832   2.739   8.580 -2.8875  2.8409  2.3934
 8394SOL    HW225361   1.716   2.647   8.510  2.1930 -2.0301 -0.3857
 8395SOL     OW25362   4.989   4.753   6.939 -0.3782 -0.9423 -0.2523
 8395SOL    HW125363   5.027   4.825   6.998 -0.5009  0.4015 -1.7375
 8395SOL    HW225364   4.895   4.734   6.967 -0.1650 -0.9057  0.4966
 8396SOL     OW25365   7.894   6.786   3.013 -0.3591 -0.2472  0.3896
 8396SOL    HW125366   7.810   6.838   3.030 -0.7583 -0.3691 -1.1234
 8396SOL    HW225367   7.899   6.761   2.917  1.9622  0.6956  0.2001
 8397SOL     OW25368   1.678   1.586   2.122 -0.1585 -0.6412 -0.2477
 8397SOL    HW125369   1.675   1.546   2.031 -0.4040 -0.7578 -0.1901
 8397SOL    HW225370   1.609   1.543   2.180 -1.0158  0.4401 -0.4223
 8398SOL     OW25371   0.453   2.807   5.669 -0.3640  0.2199 -0.1157
 8398SOL    HW125372   0.407   2.893   5.689 -0.7161 -0.0586  0.2929
 8398SOL    HW225373   0.511   2.817   5.588 -0.5911  0.7695 -0.2073
 8399SOL     OW25374   5.789   7.046   3.410  0.2696  0.1837  0.2418
 8399SOL    HW125375   5.696   7.050   3.445  0.1733 -0.6446  0.1140
 8399SOL    HW225376   5.788   7.025   3.313  0.5973 -1.7327  0.6071
 8400SOL     OW25377   2.488   3.353   3.136 -0.9382 -0.5947  0.8363
 8400SOL    HW125378   2.574   3.379   3.179 -0.8643 -0.5071  0.6358
 8400SOL    HW225379   2.485   3.389   3.043 -1.0952 -0.7911  0.7652
 8401SOL     OW25380   8.435   1.760   0.048 -0.4400 -0.5351  0.1966
 8401SOL    HW125381   8.518   1.784  -0.002 -0.5668 -1.6795 -0.6042
 8401SOL    HW225382   8.397   1.842   0.091  0.4934  0.2034 -0.3562
 8402SOL     OW25383   8.022   3.042   2.557  0.2524  0.4700  0.2696
 8402SOL    HW125384   8.034   3.011   2.463 -0.8821 -2.2644  0.9205
 8402SOL    HW225385   8.107   3.084   2.590  1.4636 -0.7123 -1.2187
 8403SOL     OW25386   6.614   3.459   6.670  0.0708  0.1328 -0.4154
 8403SOL    HW125387   6.632   3.379   6.727 -2.8614 -0.6244 -0.3938
 8403SOL    HW225388   6.519   3.487   6.681 -0.0802  1.1941 -3.4130
 8404SOL     OW25389   5.091   0.941   3.481  0.1728 -0.2779  0.2162
 8404SOL    HW125390   5.031   0.971   3.406  0.1096  0.7846  0.6779
 8404SOL    HW225391   5.111   0.844   3.470 -0.5777 -0.3496 -0.6730
 8405SOL     OW25392   1.403   6.525   8.844  0.1733  0.3993 -0.3189
 8405SOL    HW125393   1.430   6.621   8.835 -1.0003  0.7030 -0.8010
 8405SOL    HW225394   1.317   6.510   8.795  1.0928 -1.2422 -1.5359
 8406SOL     OW25395   0.466   3.644   3.937 -0.2961  0.2642  0.2186
 8406SOL    HW125396   0.530   3.569   3.950  0.3288  0.6673 -0.4320
 8406SOL    HW225397   0.508   3.730   3.966 -0.1000  0.6891 -1.2172
 8407SOL     OW25398   5.342   6.181   5.677  0.2791  0.1495 -0.2244
 8407SOL    HW125399   5.291   6.212   5.597 -2.2660 -0.4642  1.0467
 8407SOL    HW225400   5.282   6.182   5.757  2.4339 -0.2332  1.5025
 8408SOL     OW25401   4.383   7.180   2.241 -0.5139  0.0697  0.0839
 8408SOL    HW125402   4.295   7.225   2.229 -0.6441  0.6546  2.6039
 8408SOL    HW225403   4.437   7.189   2.157 -1.9817  1.6466 -0.7533
 8409SOL     OW25404   7.851   1.099   7.773  0.3477 -0.6860 -0.2321
 8409SOL    HW125405   7.773   1.117   7.834  1.1585  1.7347  0.2055
 8409SOL    HW225406   7.834   1.141   7.684  0.9053 -0.6507 -0.3225
 8410SOL     OW25407   4.065   2.526   3.869  0.2747 -0.1424  0.1973
 8410SOL    HW125408   4.027   2.435   3.882  1.3139 -0.4167  1.5702
 8410SOL    HW225409   4.162   2.526   3.896  1.1207  0.6915 -2.5230
 8411SOL     OW25410   2.370   1.422   0.744  0.8289  0.6796  0.3975
 8411SOL    HW125411   2.275   1.414   0.774  0.7108  0.6953  0.0235
 8411SOL    HW225412   2.405   1.332   0.718  0.3076  0.9432 -1.3179
 8412SOL     OW25413   1.680   6.338   0.610  0.3597  0.6617  0.1240
 8412SOL    HW125414   1.581   6.354   0.614 -0.3141 -2.6985 -0.3089
 8412SOL    HW225415   1.719   6.386   0.531 -1.3184  0.4149 -0.9029
 8413SOL     OW25416   7.728   7.294   1.232  0.3514 -0.2529 -0.5882
 8413SOL    HW125417   7.781   7.213   1.256  0.4624  0.2622  1.0874
 8413SOL    HW225418   7.790   7.366   1.200  0.5854  0.0186  0.4294
 8414SOL     OW25419   8.860   4.008   5.975  0.3723  0.2186  0.0186
 8414SOL    HW125420   8.935   3.948   5.950  0.5760  0.0143  1.0837
 8414SOL    HW225421   8.820   4.048   5.892  1.7726  0.4939 -0.5463
 8415SOL     OW25422   3.900   4.004   3.560 -0.7168  0.3493  0.2733
 8415SOL    HW125423   3.984   4.031   3.513 -1.1130  1.5971  0.2602
 8415SOL    HW225424   3.829   3.982   3.493 -1.0919  1.5352  0.2511
 8416SOL     OW25425   5.042   5.600   7.659 -0.2123  0.4029 -0.0440
 8416SOL    HW125426   5.113   5.588   7.729 -0.1804  1.8388  0.1891
 8416SOL    HW225427   5.078   5.655   7.584 -0.4313 -0.6511 -0.9564
 8417SOL     OW25428   2.625   7.987   6.299 -0.2698 -0.3077  0.2833
 8417SOL    HW125429   2.526   7.976   6.307 -0.0690 -1.6155  1.5720
 8417SOL    HW225430   2.647   8.084   6.286 -1.8551 -0.3156 -3.8372
 8418SOL     OW25431   4.232   3.260   0.634 -0.1123 -0.1584 -0.4723
 8418SOL    HW125432   4.269   3.250   0.542 -1.7864  0.6799 -1.2784
 8418SOL    HW225433   4.236   3.356   0.661 -2.1553  0.0922 -0.8534
 8419SOL     OW25434   1.238   3.360   8.123  0.2176  0.0775  0.7936
 8419SOL    HW125435   1.252   3.262   8.141  0.1975  0.2849  2.0232
 8419SOL    HW225436   1.326   3.403   8.101  0.4358  0.0395  1.5809
 8420SOL     OW25437   7.849   3.043   3.820  0.4492 -0.4448 -0.0826
 8420SOL    HW125438   7.945   3.059   3.842  0.9609  0.7721 -2.8086
 8420SOL    HW225439   7.841   3.004   3.728 -1.6744  1.3187 -0.7547
 8421SOL     OW25440   7.167   8.569   6.579 -0.3949  0.2488  0.3839
 8421SOL    HW125441   7.188   8.474   6.555 -0.3352  0.4319 -0.3331
 8421SOL    HW225442   7.250   8.624   6.573 -0.4671  0.3831  0.6064
 8422SOL     OW25443   0.601   1.563   6.624  0.0286 -0.0967 -0.1661
 8422SOL    HW125444   0.666   1.494   6.589  2.4114  2.4280 -1.0836
 8422SOL    HW225445   0.573   1.623   6.549 -3.4207 -0.9785  0.2397
 8423SOL     OW25446   4.199   7.831   3.056  0.0013 -0.3522 -0.1085
 8423SOL    HW125447   4.272   7.783   3.104 -0.4456 -0.9773 -0.0378
 8423SOL    HW225448   4.238   7.892   2.987  0.5820 -0.8405 -0.2185
 8424SOL     OW25449   7.516   8.180   7.175  0.2156  0.7131 -0.2565
 8424SOL    HW125450   7.490   8.134   7.090  0.8784  0.1355 -0.1617
 8424SOL    HW225451   7.612   8.160   7.195  0.1885  1.2095  0.3976
 8425SOL     OW25452   5.555   4.273   0.014  0.3511 -0.0583 -0.4900
 8425SOL    HW125453   5.538   4.182   0.053  0.1545  0.5971  1.0153
 8425SOL    HW225454   5.652   4.284  -0.003  0.7280  0.2674  1.5760
 8426SOL     OW25455   5.595   2.955   8.465 -0.1490  0.2201  0.6630
 8426SOL    HW125456   5.670   3.021   8.464  1.2797 -1.2909  1.6182
 8426SOL    HW225457   5.513   2.998   8.501 -0.0410  2.1858 -1.2885
 8427SOL     OW25458   6.192   2.917   3.916  0.0291 -0.1476 -0.0656
 8427SOL    HW125459   6.124   2.990   3.929 -0.6196 -0.5402 -1.0818
 8427SOL    HW225460   6.156   2.850   3.851  0.9285 -0.9859  0.2777
 8428SOL     OW25461   2.350   4.193   2.724 -0.5089  0.0979  0.5365
 8428SOL    HW125462   2.250   4.186   2.716 -0.4759  0.4866 -0.4430
 8428SOL    HW225463   2.385   4.249   2.649  0.4568 -0.0807  0.8384
 8429SOL     OW25464   6.018   2.861   2.417 -0.2058 -0.0867  0.1301
 8429SOL    HW125465   5.939   2.906   2.459 -0.5025  0.1780 -0.6845
 8429SOL    HW225466   5.993   2.768   2.390 -0.1713 -0.0775  0.0666
 8430SOL     OW25467   2.793   0.008   8.699 -0.4776 -0.2411 -0.1694
 8430SOL    HW125468   2.697   0.016   8.728 -0.6527 -1.1837 -0.4592
 8430SOL    HW225469   2.815  -0.088   8.683 -0.0167  0.1193 -1.9156
 8431SOL     OW25470   1.026   8.305   0.326  0.4583  0.0152 -0.3409
 8431SOL    HW125471   1.021   8.209   0.356  0.0936  0.4918  1.1957
 8431SOL    HW225472   1.060   8.362   0.401  0.8447  1.0757 -1.2974
 8432SOL     OW25473   1.302   7.251   4.019  0.1673 -0.2751  0.2949
 8432SOL    HW125474   1.302   7.159   4.058 -1.4243 -0.7866 -0.8106
 8432SOL    HW225475   1.386   7.265   3.967 -1.0905 -2.5671 -2.6576
 8433SOL     OW25476   7.041   6.752   5.191  0.6626  0.3630  0.1292
 8433SOL    HW125477   6.956   6.711   5.223  1.4124 -1.6409 -0.3332
 8433SOL    HW225478   7.040   6.850   5.212 -0.5696 -0.0961  2.5793
 8434SOL     OW25479   4.395   4.471   0.205  0.1829 -0.2592 -0.3575
 8434SOL    HW125480   4.302   4.497   0.233  1.0968  1.6798  1.1330
 8434SOL    HW225481   4.405   4.372   0.211 -1.0538 -0.3296  2.0383
 8435SOL     OW25482   2.636   2.806   0.266  0.1216 -0.3414 -0.6144
 8435SOL    HW125483   2.584   2.856   0.335  1.1214 -1.0195  0.6759
 8435SOL    HW225484   2.726   2.848   0.256  0.1167 -0.4731 -1.2533
 8436SOL     OW25485   7.755   3.865   6.644  0.2398  0.2696 -0.5125
 8436SOL    HW125486   7.815   3.940   6.674 -1.1654  1.0754  0.4108
 8436SOL    HW225487   7.688   3.846   6.715 -1.9115  0.8087 -2.3003
 8437SOL     OW25488   0.644   3.435   3.892  0.5021 -0.2473  0.2209
 8437SOL    HW125489   0.630   3.340   3.918  0.8219  0.0968  1.7169
 8437SOL    HW225490   0.610   3.449   3.799 -0.9744 -1.4579  0.5383
 8438SOL     OW25491   5.948   5.497   5.746  0.0837 -0.7428 -0.3983
 8438SOL    HW125492   5.867   5.443   5.770 -0.5373 -0.4913 -1.8188
 8438SOL    HW225493   6.030   5.442   5.758 -0.2552 -0.9107  1.3367
 8439SOL     OW25494   2.440   5.166   3.395  1.2487  0.0611 -0.5679
 8439SOL    HW125495   2.357   5.213   3.366  1.3161  1.1349  0.8336
 8439SOL    HW225496   2.430   5.068   3.380 -0.8482 -0.0065  0.8040
 8440SOL     OW25497   5.065   0.059   5.817 -0.4783  0.7390  0.2903
 8440SOL    HW125498   5.048   0.084   5.722  0.2795 -2.0933 -0.6816
 8440SOL    HW225499   5.030  -0.033   5.834  2.3813 -0.1906  1.7539
 8441SOL     OW25500   3.871   1.208   8.145  0.3947 -0.3632 -0.2742
 8441SOL    HW125501   3.967   1.184   8.130 -0.0275 -2.7254  0.3686
 8441SOL    HW225502   3.812   1.141   8.098 -0.9214  0.1930  0.5207
 8442SOL     OW25503   0.099   7.519   6.799 -0.0085 -0.0227 -0.2725
 8442SOL    HW125504   0.061   7.426   6.802  0.6094 -0.2860 -0.3291
 8442SOL    HW225505   0.119   7.544   6.704 -0.2676  0.2050 -0.2655
 8443SOL     OW25506   4.772   5.214   6.120 -0.5709  0.2917  0.0992
 8443SOL    HW125507   4.833   5.134   6.116  0.7914  1.3001 -0.1453
 8443SOL    HW225508   4.682   5.186   6.153 -0.1962 -1.3826 -0.2154
 8444SOL     OW25509   5.625   8.062   5.259 -0.3533 -0.0303 -0.1044
 8444SOL    HW125510   5.543   8.113   5.285  1.0523  2.1796  0.3007
 8444SOL    HW225511   5.688   8.058   5.337 -0.6695 -3.0724  0.0845
 8445SOL     OW25512   5.187   4.168   1.934 -0.0675 -0.4075 -0.5697
 8445SOL    HW125513   5.089   4.178   1.914 -0.4779 -0.4604  1.2496
 8445SOL    HW225514   5.238   4.244   1.895 -1.3276  1.5803  1.4353
 8446SOL     OW25515   5.192   8.765   8.554 -0.0787  0.0226 -0.2537
 8446SOL    HW125516   5.099   8.738   8.528  0.1483 -0.1386 -0.9176
 8446SOL    HW225517   5.249   8.770   8.472  0.8812 -1.3492  0.2872
 8447SOL     OW25518   1.435   3.445   7.420 -0.0224  0.2099 -0.1291
 8447SOL    HW125519   1.521   3.492   7.402  0.5708 -0.2560  1.3658
 8447SOL    HW225520   1.396   3.479   7.506 -2.1403  1.5259 -1.5102
 8448SOL     OW25521   7.667   2.001   3.017 -0.2127 -0.6300 -0.4453
 8448SOL    HW125522   7.654   1.944   3.098 -2.1746  1.0679  0.4969
 8448SOL    HW225523   7.629   1.954   2.937 -1.8630 -0.6865  0.3298
 8449SOL     OW25524   1.535   7.362   7.672  0.7051 -0.0893  0.2200
 8449SOL    HW125525   1.485   7.278   7.652  1.1152 -0.1097 -0.8005
 8449SOL    HW225526   1.511   7.394   7.763 -1.3414  0.0530 -0.3279
 8450SOL     OW25527   4.076   2.744   2.617  0.2953 -0.2858  0.1183
 8450SOL    HW125528   4.053   2.751   2.714  0.6866 -0.6243  0.2389
 8450SOL    HW225529   4.047   2.655   2.583  2.2681 -1.1233  0.5139
 8451SOL     OW25530   5.470   0.633   8.101 -0.0736 -0.2851 -0.4649
 8451SOL    HW125531   5.376   0.645   8.133 -0.6459 -1.0466 -1.7783
 8451SOL    HW225532   5.488   0.536   8.085  1.0862 -0.1907  0.1717
 8452SOL     OW25533   1.513   3.044   6.884  0.2546  0.3892  0.3201
 8452SOL    HW125534   1.438   3.103   6.914 -0.3894 -0.0233 -0.4336
 8452SOL    HW225535   1.545   2.990   6.962  0.8101  1.6566  1.0015
 8453SOL     OW25536   3.575   6.240   0.167  0.3017 -0.3185 -0.3336
 8453SOL    HW125537   3.629   6.196   0.238  2.2905  1.4729 -0.6461
 8453SOL    HW225538   3.485   6.195   0.160  0.4175 -1.1631  2.5725
 8454SOL     OW25539   3.381   6.867   1.066  0.6285 -0.6260  0.5345
 8454SOL    HW125540   3.348   6.807   0.993 -0.8065  0.1268  0.5104
 8454SOL    HW225541   3.461   6.827   1.110  1.7947 -0.8956 -1.7315
 8455SOL     OW25542   7.225   6.343   4.803 -0.7368 -0.1319 -0.7245
 8455SOL    HW125543   7.133   6.313   4.828 -0.5315  0.7021  1.2377
 8455SOL    HW225544   7.273   6.377   4.885  0.8296  0.7417 -1.9289
 8456SOL     OW25545   2.486   3.012   8.634  0.4378  0.0817  0.0351
 8456SOL    HW125546   2.442   2.923   8.643 -1.0064  0.9606  3.5647
 8456SOL    HW225547   2.436   3.079   8.690  2.8773  2.5501 -0.5413
 8457SOL     OW25548   6.564   5.049   1.921  0.2540 -0.1858  0.1025
 8457SOL    HW125549   6.616   4.963   1.921  0.1907 -0.2641 -1.8230
 8457SOL    HW225550   6.617   5.119   1.873  0.5000  1.0203  2.0353
 8458SOL     OW25551   2.170   4.047   7.371 -0.3666 -0.0646  0.2467
 8458SOL    HW125552   2.150   3.983   7.445  0.4114 -2.8196 -1.7610
 8458SOL    HW225553   2.144   4.140   7.399 -0.0947 -0.9380  3.9000
 8459SOL     OW25554   5.091   7.339   4.216  0.4861 -0.1835 -0.9513
 8459SOL    HW125555   5.190   7.330   4.207  0.4869  0.0736 -1.2195
 8459SOL    HW225556   5.059   7.416   4.160  0.1206 -0.3393 -0.9596
 8460SOL     OW25557   6.484   8.379   4.032  0.3488  0.3994  0.0146
 8460SOL    HW125558   6.395   8.355   4.072 -1.3329  1.6460 -2.7118
 8460SOL    HW225559   6.516   8.305   3.975  1.8055 -0.5798  1.9672
 8461SOL     OW25560   1.745   1.804   5.724 -0.1612 -0.3576 -0.0424
 8461SOL    HW125561   1.775   1.838   5.635 -1.0679 -0.4883 -0.4064
 8461SOL    HW225562   1.671   1.861   5.759  0.2217 -0.2767  0.6627
 8462SOL     OW25563   1.069   5.541   6.976 -0.0798 -0.1022 -0.4387
 8462SOL    HW125564   1.057   5.589   6.889  0.3579  1.0919  0.1244
 8462SOL    HW225565   1.002   5.468   6.985 -1.8484  1.4396 -0.6543
 8463SOL     OW25566   8.072   8.054   2.899 -0.1240  0.2807  0.1145
 8463SOL    HW125567   7.982   8.094   2.916  0.7479  1.9774  1.0106
 8463SOL    HW225568   8.079   7.966   2.944 -0.9824  0.6140  0.9280
 8464SOL     OW25569   0.602   6.037   3.335 -0.0294 -0.1090  0.6588
 8464SOL    HW125570   0.647   6.125   3.321  0.4869 -0.6027 -0.9186
 8464SOL    HW225571   0.669   5.964   3.328 -0.8016 -0.7523 -0.0813
 8465SOL     OW25572   3.774   8.554   7.772 -0.0940  0.4847  0.4269
 8465SOL    HW125573   3.748   8.644   7.804 -0.3880  0.1679  1.0893
 8465SOL    HW225574   3.703   8.488   7.797  0.7144 -0.1552  1.0731
 8466SOL     OW25575   8.534   7.478   3.201  0.1778  0.2728  0.2707
 8466SOL    HW125576   8.576   7.433   3.122  0.8325  0.7312  0.3438
 8466SOL    HW225577   8.438   7.453   3.207  0.8040 -2.1988  1.1078
 8467SOL     OW25578   7.390   8.713   6.622  0.1811  0.0585  0.4362
 8467SOL    HW125579   7.425   8.762   6.542  0.9584  1.4340  1.5721
 8467SOL    HW225580   7.371   8.779   6.696 -1.1087 -1.0993  1.1874
 8468SOL     OW25581   4.649   5.308   5.813 -0.3372  0.4392  0.0635
 8468SOL    HW125582   4.641   5.236   5.882  2.9997 -0.3508 -0.2044
 8468SOL    HW225583   4.610   5.277   5.726  0.6682 -0.8971  0.0695
 8469SOL     OW25584   1.025   1.611   7.893  0.3022 -0.5800 -0.3753
 8469SOL    HW125585   0.998   1.525   7.937  1.9762 -0.7729  0.3318
 8469SOL    HW225586   1.024   1.684   7.961 -0.4645 -0.1469 -0.8313
 8470SOL     OW25587   0.501   3.389   5.656  0.2651 -0.2338  0.3957
 8470SOL    HW125588   0.543   3.465   5.606 -2.0557  0.3665 -0.8004
 8470SOL    HW225589   0.459   3.325   5.592 -0.3883 -0.9418  1.4876
 8471SOL     OW25590   2.000   7.920   4.321  0.1842  0.2341 -0.7196
 8471SOL    HW125591   2.052   7.926   4.407  0.9698 -0.9359 -1.0979
 8471SOL    HW225592   2.007   8.007   4.273  0.1031  0.7594  0.1862
 8472SOL     OW25593   1.622   6.498   4.000 -0.0320  0.2084 -0.0956
 8472SOL    HW125594   1.591   6.449   3.918 -0.7594 -0.5940  0.6335
 8472SOL    HW225595   1.690   6.566   3.974 -0.3361  0.0578 -1.3827
 8473SOL     OW25596   8.542   4.235   2.682 -0.4079 -0.0332  0.4140
 8473SOL    HW125597   8.554   4.153   2.625  1.4573  0.5280 -0.0550
 8473SOL    HW225598   8.472   4.217   2.751 -0.9633 -1.5704 -0.4931
 8474SOL     OW25599   1.526   5.102   4.445 -0.2142 -0.0787  0.2305
 8474SOL    HW125600   1.556   5.071   4.535  1.5423 -0.1262 -0.3238
 8474SOL    HW225601   1.547   5.032   4.377 -0.7262  0.3137 -0.3449
 8475SOL     OW25602   5.303   3.117   6.950  0.0121  0.7316  0.2217
 8475SOL    HW125603   5.240   3.130   7.027 -0.9274 -0.9765 -0.2218
 8475SOL    HW225604   5.385   3.068   6.982  0.6476  1.9589  0.5568
 8476SOL     OW25605   4.304   7.312   3.635 -0.2626 -0.1912 -0.0419
 8476SOL    HW125606   4.341   7.342   3.724  1.2274  0.3813 -0.8093
 8476SOL    HW225607   4.364   7.243   3.596 -1.4589 -1.1806 -0.1716
 8477SOL     OW25608   2.617   6.020   6.980  0.0777  0.2782 -0.3070
 8477SOL    HW125609   2.646   6.009   6.885 -2.0301  0.8346 -1.0726
 8477SOL    HW225610   2.623   5.932   7.027  1.5173  0.0790 -0.8133
 8478SOL     OW25611   2.930   5.250   5.252 -0.1184  0.2374  0.3231
 8478SOL    HW125612   2.950   5.204   5.165  0.5486  0.7083  0.2150
 8478SOL    HW225613   2.906   5.345   5.234 -1.0681  0.0565  0.5781
 8479SOL     OW25614   5.279   0.507   4.355  0.0407 -1.1657  0.2401
 8479SOL    HW125615   5.240   0.526   4.445 -1.6634 -0.3803 -0.6283
 8479SOL    HW225616   5.366   0.555   4.345 -0.5207  0.0194  0.9043
 8480SOL     OW25617   1.254   1.622   0.579  0.7970  0.6892  0.1925
 8480SOL    HW125618   1.327   1.605   0.513 -0.2708 -1.0994 -0.6397
 8480SOL    HW225619   1.282   1.592   0.670  2.3920  3.4394  0.7125
 8481SOL     OW25620   4.745   6.758   3.685 -0.1909 -0.2377 -0.6014
 8481SOL    HW125621   4.839   6.769   3.652  0.3654  0.0527  0.9842
 8481SOL    HW225622   4.708   6.847   3.711 -0.2418 -0.5497  0.4534
 8482SOL     OW25623   6.847   8.589   4.289 -0.3339 -0.0999 -0.4567
 8482SOL    HW125624   6.800   8.635   4.213 -2.4913 -2.1421 -0.4747
 8482SOL    HW225625   6.942   8.621   4.293 -1.2319  3.0956 -1.3962
 8483SOL     OW25626   6.919   7.183   6.384  1.0104 -0.0114  0.5668
 8483SOL    HW125627   6.852   7.110   6.382 -0.6135  1.4190  0.1889
 8483SOL    HW225628   7.010   7.146   6.364  0.2293 -1.8717  0.3067
 8484SOL     OW25629   8.632   0.612   2.759 -0.3004 -0.2255  0.5142
 8484SOL    HW125630   8.534   0.605   2.741 -0.1250 -0.9331 -0.2151
 8484SOL    HW225631   8.668   0.522   2.783  0.3915 -0.2148 -0.4259
 8485SOL     OW25632   0.254   1.906   6.710 -0.2037  0.2870  0.5019
 8485SOL    HW125633   0.261   1.968   6.631  2.0713 -1.6935 -1.0019
 8485SOL    HW225634   0.318   1.936   6.780  0.8319 -0.2716 -0.1854
 8486SOL     OW25635   5.550   0.712   1.994  0.2791 -0.3656  0.6198
 8486SOL    HW125636   5.561   0.638   1.928  0.1868  0.8435 -0.8179
 8486SOL    HW225637   5.615   0.700   2.069  0.4930 -1.7094  0.2432
 8487SOL     OW25638   1.628   0.588   5.490  0.4720  0.3622  0.5301
 8487SOL    HW125639   1.580   0.619   5.572  0.0816 -0.6403  0.6981
 8487SOL    HW225640   1.642   0.665   5.428 -0.5001  0.8641  0.9151
 8488SOL     OW25641   2.737   7.478   2.431 -0.2136  0.1686 -0.1045
 8488SOL    HW125642   2.754   7.538   2.509  2.6652  0.4692 -0.8683
 8488SOL    HW225643   2.740   7.383   2.462 -1.3636  0.2931  0.4871
 8489SOL     OW25644   0.716   2.356   3.898 -0.0550 -0.0885  0.5090
 8489SOL    HW125645   0.618   2.349   3.878  0.0423  0.3747 -0.1708
 8489SOL    HW225646   0.738   2.450   3.923  0.0355 -0.4201  1.7305
 8490SOL     OW25647   4.031   6.515   0.826 -0.3936 -0.1415 -0.4906
 8490SOL    HW125648   3.970   6.566   0.766 -0.6612  0.9042  0.6323
 8490SOL    HW225649   3.978   6.451   0.881 -0.1311 -1.2089 -1.4485
 8491SOL     OW25650   7.390   6.137   0.950  0.3929 -0.1386 -0.2709
 8491SOL    HW125651   7.380   6.144   0.851  0.0986 -1.1224 -0.3214
 8491SOL    HW225652   7.309   6.177   0.994 -1.1389 -2.7326 -0.5376
 8492SOL     OW25653   1.238   3.765   3.379 -0.4752  0.1266 -0.1901
 8492SOL    HW125654   1.273   3.684   3.425 -0.7761  1.4294  2.5313
 8492SOL    HW225655   1.209   3.741   3.286  3.5705 -1.9126 -1.1601
 8493SOL     OW25656   7.955   2.873   4.595  0.5022  0.3767  0.1109
 8493SOL    HW125657   7.916   2.807   4.659  0.4674  0.0909 -0.2041
 8493SOL    HW225658   8.024   2.928   4.642  0.1224  0.5114  0.5259
 8494SOL     OW25659   1.744   2.739   8.836  0.1065  0.1109  0.0685
 8494SOL    HW125660   1.822   2.712   8.893 -0.2719 -0.1230  0.4711
 8494SOL    HW225661   1.758   2.706   8.743  0.7251  0.4942  0.0169
 8495SOL     OW25662   3.947   4.654   4.189  0.5205  0.0730  0.4079
 8495SOL    HW125663   3.907   4.710   4.117  3.1266  0.9981 -0.4318
 8495SOL    HW225664   3.934   4.557   4.168 -1.2947  0.3320  0.2442
 8496SOL     OW25665   0.368   4.147   3.203  0.4968  0.4917 -0.3622
 8496SOL    HW125666   0.290   4.084   3.196  0.4170  0.2190  2.1378
 8496SOL    HW225667   0.341   4.236   3.167 -1.5710  0.8478  1.8358
 8497SOL     OW25668   1.022   4.992   6.133 -0.3940  0.5686  0.0889
 8497SOL    HW125669   1.054   4.988   6.228  2.5827  2.5177 -0.6849
 8497SOL    HW225670   1.007   5.087   6.106  0.9065  0.2600 -1.9635
 8498SOL     OW25671   0.651   6.598   6.296 -0.2857  0.5181  0.4657
 8498SOL    HW125672   0.602   6.664   6.239 -0.0059  0.5843  0.3037
 8498SOL    HW225673   0.734   6.567   6.249 -0.9804 -0.7917  0.0367
 8499SOL     OW25674   7.416   7.847   0.414 -0.4456  0.0357 -0.0337
 8499SOL    HW125675   7.343   7.788   0.380 -0.3238 -0.1324 -0.0077
 8499SOL    HW225676   7.399   7.942   0.386 -1.2956  0.1934  0.9762
 8500SOL     OW25677   5.398   0.074   2.269  0.1075  0.0134  0.1663
 8500SOL    HW125678   5.348  -0.012   2.282  0.5495 -0.1037  1.1358
 8500SOL    HW225679   5.401   0.095   2.172 -1.1506 -0.3827  0.0159
 8501SOL     OW25680   0.910   6.936   4.989  0.6129  0.1346 -0.4434
 8501SOL    HW125681   0.904   6.837   5.000 -1.3742  0.3058  0.6161
 8501SOL    HW225682   0.994   6.970   5.031  0.6280 -0.9536  0.4473
 8502SOL     OW25683   4.226   2.660   8.661  0.3807  0.2387  0.8022
 8502SOL    HW125684   4.244   2.562   8.649  1.8618  0.5033  0.6198
 8502SOL    HW225685   4.307   2.712   8.634 -0.3946  1.5270  0.8757
 8503SOL     OW25686   6.713   1.068   3.777 -0.0933 -0.0744  0.3222
 8503SOL    HW125687   6.687   1.155   3.818 -0.1264 -0.5932  1.4490
 8503SOL    HW225688   6.715   1.077   3.678 -1.0690  0.9402  0.3760
 8504SOL     OW25689   5.587   7.634   6.632  0.6746 -0.1890 -0.0680
 8504SOL    HW125690   5.528   7.678   6.565 -1.6363 -0.4826  1.6655
 8504SOL    HW225691   5.555   7.655   6.724  2.1649 -1.9237  0.9129
 8505SOL     OW25692   7.541   1.724   6.195 -0.0685 -0.5825  0.1469
 8505SOL    HW125693   7.535   1.733   6.096  0.8838 -0.6996  0.0721
 8505SOL    HW225694   7.580   1.635   6.218  0.0471 -0.4114  0.6228
 8506SOL     OW25695   8.258   4.842   8.276  0.4048  0.1751 -0.3108
 8506SOL    HW125696   8.222   4.795   8.357 -1.0532  1.9897  0.1839
 8506SOL    HW225697   8.182   4.866   8.215  1.3615 -0.1234 -1.6661
 8507SOL     OW25698   3.257   3.850   1.500 -0.0520  0.2180  0.2747
 8507SOL    HW125699   3.298   3.811   1.418 -2.9726 -2.4913 -0.0744
 8507SOL    HW225700   3.203   3.781   1.548 -1.6121  2.6720  2.3897
 8508SOL     OW25701   8.683   5.887   2.841  0.6541 -0.2603 -0.9083
 8508SOL    HW125702   8.669   5.983   2.820 -2.2859  0.1935  2.2326
 8508SOL    HW225703   8.616   5.832   2.791  0.1179 -0.2578 -0.2098
 8509SOL     OW25704   6.781   1.836   7.774  0.2915 -0.0795  0.2264
 8509SOL    HW125705   6.697   1.793   7.806 -0.2039 -0.9522 -2.0855
 8509SOL    HW225706   6.768   1.935   7.768 -1.2209 -0.3451 -1.7644
 8510SOL     OW25707   7.042   1.414   4.906  0.1859 -0.3569  0.1243
 8510SOL    HW125708   7.076   1.325   4.937 -0.3092 -0.5688  0.0706
 8510SOL    HW225709   6.966   1.400   4.841  1.5832  0.0402 -1.6829
 8511SOL     OW25710   5.309   7.757   4.959  0.0373  0.7654 -0.1557
 8511SOL    HW125711   5.392   7.806   4.932  0.0332  1.3624  0.8570
 8511SOL    HW225712   5.229   7.803   4.921  0.1011  0.8526 -0.1838
 8512SOL     OW25713   7.518   6.639   2.296  0.3764 -0.1312 -0.0409
 8512SOL    HW125714   7.429   6.676   2.323  1.0431  0.6316  1.1863
 8512SOL    HW225715   7.529   6.649   2.197 -0.6665  0.2717 -0.1293
 8513SOL     OW25716   5.158   3.936   4.518 -0.4717  0.1790 -0.7286
 8513SOL    HW125717   5.065   3.973   4.524  0.4433  2.9462 -1.6319
 8513SOL    HW225718   5.206   3.951   4.605 -0.3897  0.2292 -0.7820
 8514SOL     OW25719   6.566   2.269   1.095 -0.4767 -0.3551 -0.2483
 8514SOL    HW125720   6.638   2.339   1.090 -0.3709 -0.4959 -0.7682
 8514SOL    HW225721   6.586   2.197   1.030  0.0535 -1.4892  1.1179
 8515SOL     OW25722   5.092   4.612   7.691 -0.0935  0.0834 -0.3106
 8515SOL    HW125723   4.993   4.627   7.688 -0.1786 -0.2588  0.5823
 8515SOL    HW225724   5.115   4.556   7.771  0.8673  0.5065 -0.2790
 8516SOL     OW25725   6.597   6.523   4.171  0.5149 -0.2074  0.1399
 8516SOL    HW125726   6.693   6.502   4.190  0.9248  0.4184 -1.1327
 8516SOL    HW225727   6.567   6.473   4.091  0.0475  0.2843 -0.0002
 8517SOL     OW25728   2.568   6.546   5.401 -0.3225  0.2381 -0.6147
 8517SOL    HW125729   2.520   6.480   5.342  2.6929 -0.9625 -1.9476
 8517SOL    HW225730   2.504   6.584   5.467 -3.1054 -1.0268 -2.3697
 8518SOL     OW25731   4.312   2.418   6.381 -0.2923 -0.0015 -0.0140
 8518SOL    HW125732   4.412   2.414   6.380 -0.3016 -0.2432 -0.1735
 8518SOL    HW225733   4.275   2.327   6.362 -0.5464 -0.0215  0.5848
 8519SOL     OW25734   2.870   2.570   5.314 -0.0273  0.0223  0.1387
 8519SOL    HW125735   2.946   2.508   5.333 -1.3406 -0.7950  3.5240
 8519SOL    HW225736   2.903   2.665   5.316  1.2039 -0.3755 -0.4724
 8520SOL     OW25737   3.449   5.585   5.580 -0.5349 -0.1446  0.2792
 8520SOL    HW125738   3.428   5.665   5.524 -2.2783 -0.9991 -0.3669
 8520SOL    HW225739   3.547   5.580   5.595 -0.4189  2.4822  0.9292
 8521SOL     OW25740   2.930   4.330   1.028 -0.2049  0.4261 -0.2607
 8521SOL    HW125741   2.854   4.318   0.964  0.2752 -1.2553 -0.5515
 8521SOL    HW225742   2.948   4.428   1.039 -0.9637  0.7928 -1.8828
 8522SOL     OW25743   1.303   7.873   3.977  0.6406 -0.2859  0.0386
 8522SOL    HW125744   1.237   7.941   3.948 -0.3211 -0.4196  1.7872
 8522SOL    HW225745   1.394   7.914   3.980  0.3332  0.4525 -0.4756
 8523SOL     OW25746   5.118   6.283   2.968  0.6039  0.8173 -0.0517
 8523SOL    HW125747   5.195   6.235   2.927  0.5372 -0.5346  1.3087
 8523SOL    HW225748   5.063   6.218   3.020 -1.3526  1.7901 -0.8098
 8524SOL     OW25749   1.955   2.191   7.977  0.5560  0.3691 -0.2255
 8524SOL    HW125750   1.927   2.247   7.899 -0.7623  1.7426  1.1521
 8524SOL    HW225751   1.938   2.094   7.957 -1.6750  0.8521 -0.9221
 8525SOL     OW25752   1.407   7.462   4.839 -0.5692 -0.2045  0.1243
 8525SOL    HW125753   1.360   7.461   4.927 -0.0137  2.0994  0.5169
 8525SOL    HW225754   1.339   7.465   4.765 -1.0403  0.0546  0.5599
 8526SOL     OW25755   7.920   4.329   8.198 -0.2315  0.1083  0.6094
 8526SOL    HW125756   7.855   4.274   8.251  0.8689 -0.1763  1.6997
 8526SOL    HW225757   7.991   4.271   8.160  0.3704  0.6253  0.9122
 8527SOL     OW25758   1.203   0.100   0.149 -0.3144  0.6587 -0.2680
 8527SOL    HW125759   1.178   0.195   0.129 -0.0767  1.0530  1.2053
 8527SOL    HW225760   1.208   0.087   0.248  0.3932 -0.7000 -0.4615
 8528SOL     OW25761   5.398   5.054   1.023 -0.4445 -0.3340  0.4431
 8528SOL    HW125762   5.338   5.131   1.005  0.6340 -0.0122 -2.2568
 8528SOL    HW225763   5.433   5.060   1.117 -0.5370  2.3588  0.3854
 8529SOL     OW25764   6.472   8.282   0.320 -0.9011 -0.6391 -0.1409
 8529SOL    HW125765   6.476   8.352   0.249 -0.0101 -0.1198  0.3899
 8529SOL    HW225766   6.464   8.326   0.409 -3.6857 -1.3229  0.0283
 8530SOL     OW25767   3.242   8.098   5.038  0.1756  0.0712  0.1114
 8530SOL    HW125768   3.261   8.090   5.135  0.2262  1.4781  0.2381
 8530SOL    HW225769   3.149   8.134   5.025 -0.5457 -1.8392 -0.4143
 8531SOL     OW25770   0.815   6.511   6.067 -0.1983  0.3902  0.2067
 8531SOL    HW125771   0.824   6.422   6.022 -0.6248  0.5231 -0.1509
 8531SOL    HW225772   0.757   6.571   6.011  0.4941  1.0631  0.1936
 8532SOL     OW25773   4.657   4.444   1.750  0.1266 -0.1324 -0.5791
 8532SOL    HW125774   4.574   4.501   1.753  0.9823  1.2340 -1.6747
 8532SOL    HW225775   4.721   4.474   1.820  0.6158  0.3472 -1.2161
 8533SOL     OW25776   3.001   1.196   0.795  0.8224 -0.5650 -0.1739
 8533SOL    HW125777   2.948   1.124   0.841 -2.3917  1.7482  0.0914
 8533SOL    HW225778   2.957   1.219   0.708  1.2237  1.6642  0.1613
 8534SOL     OW25779   3.918   1.162   6.153  0.5574 -0.0700  0.0360
 8534SOL    HW125780   3.995   1.204   6.104  1.3581 -1.8271 -0.2869
 8534SOL    HW225781   3.850   1.129   6.087  0.3197 -0.0108  0.2496
 8535SOL     OW25782   4.791   6.671   5.208 -0.1423 -0.0938 -0.1706
 8535SOL    HW125783   4.762   6.675   5.113 -0.2084  0.3205 -0.1311
 8535SOL    HW225784   4.891   6.670   5.212 -0.1289  0.6759 -0.2131
 8536SOL     OW25785   5.570   6.750   7.839  0.4222  0.1152 -0.2909
 8536SOL    HW125786   5.493   6.808   7.866  1.1096 -0.1747  2.6420
 8536SOL    HW225787   5.645   6.807   7.806  0.1577  0.6864  0.0785
 8537SOL     OW25788   5.672   7.187   4.316 -0.0933 -0.2761 -0.3413
 8537SOL    HW125789   5.574   7.182   4.334 -0.4609 -0.3454 -2.2065
 8537SOL    HW225790   5.720   7.209   4.401 -1.6910 -0.4122  0.6393
 8538SOL     OW25791   8.170   7.824   6.665 -0.1631 -0.0915 -0.4056
 8538SOL    HW125792   8.219   7.886   6.727 -2.0223  1.4841 -0.4075
 8538SOL    HW225793   8.236   7.772   6.611  1.4859  0.2169  1.2174
 8539SOL     OW25794   7.317   2.643   7.186 -0.4211 -0.3516 -0.5753
 8539SOL    HW125795   7.295   2.737   7.211  1.3436 -0.5093  1.9321
 8539SOL    HW225796   7.333   2.589   7.269 -0.9610 -2.7903 -1.9514
 8540SOL     OW25797   8.248   2.510   1.449  0.0130 -1.2286 -0.0921
 8540SOL    HW125798   8.323   2.449   1.473  0.8199 -0.1232  0.3124
 8540SOL    HW225799   8.244   2.521   1.349  1.4979 -0.0246 -0.0709
 8541SOL     OW25800   5.913   0.073   6.966  0.1491  0.3857  0.2065
 8541SOL    HW125801   5.890  -0.019   6.996 -1.4624  0.6618 -0.1120
 8541SOL    HW225802   5.832   0.131   6.970  0.9021  1.5370 -0.5560
 8542SOL     OW25803   4.112   5.425   8.682 -0.2546  0.2317 -0.0426
 8542SOL    HW125804   4.133   5.332   8.711 -2.2601  0.1091  1.2284
 8542SOL    HW225805   4.120   5.431   8.582  2.5827 -0.4988  0.0420
 8543SOL     OW25806   3.099   4.160   6.493 -0.1166  0.4910 -0.2593
 8543SOL    HW125807   3.043   4.095   6.543 -0.2505  0.9811  0.2275
 8543SOL    HW225808   3.040   4.224   6.443 -0.0227  1.5612  0.9582
 8544SOL     OW25809   2.348   4.687   8.463 -0.4755  0.9571  0.0945
 8544SOL    HW125810   2.267   4.659   8.411 -0.3289 -0.3483  0.5286
 8544SOL    HW225811   2.373   4.781   8.439 -0.4369  0.4162 -2.1385
 8545SOL     OW25812   6.322   5.780   0.794 -0.6187 -0.1688  0.2517
 8545SOL    HW125813   6.270   5.829   0.723 -0.5894  0.5966  0.7489
 8545SOL    HW225814   6.384   5.844   0.840  0.9417 -1.1140 -0.4684
 8546SOL     OW25815   0.762   0.248   8.524 -0.2766 -0.1290  0.1215
 8546SOL    HW125816   0.740   0.152   8.506  0.1948 -0.2317  0.0920
 8546SOL    HW225817   0.682   0.293   8.564 -0.3840 -0.6266  0.4837
 8547SOL     OW25818   6.985   0.101   3.851 -0.1792 -0.1389  0.4302
 8547SOL    HW125819   7.076   0.059   3.850 -0.4838 -0.8013 -0.2154
 8547SOL    HW225820   6.951   0.103   3.945 -0.3994 -1.9190  0.4364
 8548SOL     OW25821   0.510   3.653   5.523 -0.5400  0.0025 -0.3464
 8548SOL    HW125822   0.524   3.635   5.425  1.7836  1.3512 -0.3330
 8548SOL    HW225823   0.598   3.668   5.567 -1.6194  0.5220  1.7686
 8549SOL     OW25824   2.439   5.090   5.443 -0.1386 -0.5703 -0.1384
 8549SOL    HW125825   2.447   5.190   5.450 -0.2690 -0.5827  0.2705
 8549SOL    HW225826   2.519   5.052   5.397 -0.5593 -0.1799 -1.2080
 8550SOL     OW25827   8.285   5.620   5.514  0.4036 -0.2450 -0.7761
 8550SOL    HW125828   8.241   5.531   5.521 -1.5086  0.7227  0.3941
 8550SOL    HW225829   8.290   5.662   5.605 -1.0051  1.8379 -1.5879
 8551SOL     OW25830   5.709   1.581   0.365  0.2802  0.0586 -0.0355
 8551SOL    HW125831   5.662   1.507   0.413 -0.9991  1.4643  1.0022
 8551SOL    HW225832   5.808   1.568   0.370  0.0747 -1.9075 -0.4922
 8552SOL     OW25833   1.952   6.349   2.016  0.2050 -0.2886 -0.2599
 8552SOL    HW125834   1.987   6.343   1.922  0.6601 -0.9454 -0.0611
 8552SOL    HW225835   1.960   6.259   2.060 -3.7696 -1.1268 -0.8791
 8553SOL     OW25836   8.740   4.819   2.986  0.6137 -0.0014  0.5387
 8553SOL    HW125837   8.669   4.796   3.053  0.9030 -0.0975  0.8107
 8553SOL    HW225838   8.817   4.863   3.032  0.4500  0.7119  0.1504
 8554SOL     OW25839   4.298   2.530   4.019 -0.2607 -0.4790  0.6862
 8554SOL    HW125840   4.378   2.472   4.004  0.0246  0.2579 -0.9149
 8554SOL    HW225841   4.319   2.623   3.989 -1.9681 -0.4485 -0.5617
 8555SOL     OW25842   7.355   7.079   2.529  0.0905 -0.2336  0.3645
 8555SOL    HW125843   7.412   7.045   2.603  0.3853 -2.1748 -0.6834
 8555SOL    HW225844   7.411   7.097   2.448 -0.5879 -1.1377 -0.3412
 8556SOL     OW25845   5.104   2.015   7.835  0.3329  0.2883 -0.0503
 8556SOL    HW125846   5.171   2.087   7.815  0.1156  0.2174 -1.1422
 8556SOL    HW225847   5.088   1.962   7.751 -0.1140 -0.5184  0.5380
 8557SOL     OW25848   8.334   6.267   7.172  0.0050 -0.3093  0.1527
 8557SOL    HW125849   8.247   6.250   7.218 -0.0782 -1.1411 -0.2930
 8557SOL    HW225850   8.336   6.218   7.085 -0.3529  2.1804 -1.3767
 8558SOL     OW25851   8.507   7.641   5.331 -0.4741 -0.0514  0.0241
 8558SOL    HW125852   8.417   7.629   5.289 -0.0675 -1.0020 -0.6157
 8558SOL    HW225853   8.507   7.602   5.423 -1.6233  2.8056  1.3415
 8559SOL     OW25854   4.578   1.280   5.147 -0.2265  0.5221  0.2287
 8559SOL    HW125855   4.656   1.325   5.105 -0.9650  0.6691 -1.0525
 8559SOL    HW225856   4.603   1.247   5.238  2.0762 -1.5022 -0.9987
 8560SOL     OW25857   1.276   4.042   0.320 -0.2247  0.2405 -0.2694
 8560SOL    HW125858   1.198   4.047   0.259 -0.2477  0.3420 -0.2317
 8560SOL    HW225859   1.272   3.957   0.373 -1.7270  1.4166  1.6274
 8561SOL     OW25860   5.672   0.469   5.339 -0.0262  0.1497  0.2350
 8561SOL    HW125861   5.701   0.411   5.263  0.4135 -0.5780  0.9441
 8561SOL    HW225862   5.631   0.412   5.411 -0.5483  0.8418  0.5003
 8562SOL     OW25863   7.503   0.333   7.842  0.6212  0.3790  0.2598
 8562SOL    HW125864   7.471   0.357   7.750  1.4852 -0.2143 -0.2116
 8562SOL    HW225865   7.555   0.409   7.880 -0.7693  1.1133  0.7856
 8563SOL     OW25866   4.109   5.825   7.684  0.1041 -0.0410  0.2778
 8563SOL    HW125867   4.109   5.916   7.724  1.4558  0.2045 -0.2141
 8563SOL    HW225868   4.068   5.760   7.748  0.0787  0.7345  1.0614
 8564SOL     OW25869   2.734   2.458   7.077 -0.0527 -0.3177  0.0592
 8564SOL    HW125870   2.820   2.446   7.027 -0.4757  0.7471 -0.9561
 8564SOL    HW225871   2.695   2.547   7.055 -1.4258 -0.7927  0.5170
 8565SOL     OW25872   2.004   1.926   1.149 -0.1873 -0.5112  0.1332
 8565SOL    HW125873   1.989   1.834   1.185 -1.5474  0.2093  1.5468
 8565SOL    HW225874   2.058   1.979   1.214 -0.6285  0.0989  0.0101
 8566SOL     OW25875   2.054   0.409   2.255  0.2512  0.3792  0.0905
 8566SOL    HW125876   2.142   0.420   2.208  1.1682 -2.7391  0.7998
 8566SOL    HW225877   1.987   0.373   2.191 -0.1033  1.3997 -0.1150
 8567SOL     OW25878   3.306   0.344   3.275  0.1941 -0.0089  0.4188
 8567SOL    HW125879   3.347   0.348   3.366  0.1413 -0.3185  0.4573
 8567SOL    HW225880   3.206   0.339   3.283  0.2233 -0.8198  0.3701
 8568SOL     OW25881   4.176   5.407   7.920  0.8871 -0.8058  0.2985
 8568SOL    HW125882   4.135   5.470   7.987  1.2155 -1.8025  1.4752
 8568SOL    HW225883   4.267   5.381   7.950  1.2267 -0.9131 -0.7946
 8569SOL     OW25884   5.958   6.027   4.877 -0.1864  0.4346 -0.5653
 8569SOL    HW125885   6.016   5.952   4.909 -2.7259 -1.1181  0.7321
 8569SOL    HW225886   6.001   6.114   4.900  1.6628 -0.6165  0.1969
 8570SOL     OW25887   5.442   6.794   3.982  0.1643 -0.5844 -0.1915
 8570SOL    HW125888   5.357   6.790   4.034  1.0912 -1.3274  1.3271
 8570SOL    HW225889   5.495   6.874   4.010 -0.2393  0.1842 -1.5248
 8571SOL     OW25890   2.816   0.232   0.317  0.3757  0.2160  0.5083
 8571SOL    HW125891   2.845   0.189   0.232  0.1519  1.8609 -0.4531
 8571SOL    HW225892   2.789   0.162   0.383  0.3729 -1.0877 -0.8245
 8572SOL     OW25893   0.626   6.562   6.986 -0.5025 -0.3087 -0.0555
 8572SOL    HW125894   0.568   6.560   7.068 -0.3093  1.9826  0.1847
 8572SOL    HW225895   0.594   6.492   6.922 -0.4706 -2.3707  2.0467
 8573SOL     OW25896   2.781   3.127   1.490 -0.2865 -0.1716 -0.9637
 8573SOL    HW125897   2.702   3.087   1.537 -0.1615  0.8941  0.2027
 8573SOL    HW225898   2.774   3.109   1.392 -2.0128 -0.0372 -0.8954
 8574SOL     OW25899   0.866   8.180   5.198 -0.0472 -0.5956 -0.3616
 8574SOL    HW125900   0.896   8.109   5.262  0.7785 -0.3380 -0.4475
 8574SOL    HW225901   0.941   8.245   5.183 -0.4934 -0.2144 -0.9836
 8575SOL     OW25902   6.117   7.710   1.159 -0.2097  0.6010 -0.7074
 8575SOL    HW125903   6.159   7.720   1.069  1.0604  0.2497 -0.1837
 8575SOL    HW225904   6.109   7.613   1.181  1.5100  0.6691  0.4221
 8576SOL     OW25905   4.148   6.564   5.754 -0.3157  0.2484  0.3372
 8576SOL    HW125906   4.096   6.494   5.803 -0.9686  0.2065 -0.3842
 8576SOL    HW225907   4.225   6.522   5.707 -1.1779 -0.1329 -0.7631
 8577SOL     OW25908   0.477   5.866   0.108 -0.5331 -0.0250 -0.3097
 8577SOL    HW125909   0.458   5.785   0.051 -0.2931 -0.2597 -0.0568
 8577SOL    HW225910   0.491   5.945   0.049 -0.6626 -0.1899 -0.5655
 8578SOL     OW25911   1.262   1.899   2.371 -0.5790  0.0881 -0.1901
 8578SOL    HW125912   1.238   1.802   2.366 -1.9262  0.4650 -3.0082
 8578SOL    HW225913   1.183   1.955   2.345  0.7183  1.8597 -0.5555
 8579SOL     OW25914   3.862   1.541   1.310 -0.0385  0.0198 -0.2719
 8579SOL    HW125915   3.784   1.600   1.329  0.0405  0.0306  0.0120
 8579SOL    HW225916   3.831   1.463   1.254 -0.3422 -0.2095  0.2074
 8580SOL     OW25917   7.447   6.735   7.904  0.4562 -0.1441 -0.0906
 8580SOL    HW125918   7.379   6.661   7.902  1.2705 -0.9009 -0.3200
 8580SOL    HW225919   7.415   6.808   7.965 -0.6405 -0.4037 -0.3274
 8581SOL     OW25920   7.106   8.503   5.288 -0.4273  0.4842 -0.2173
 8581SOL    HW125921   7.182   8.536   5.344 -0.3074  0.8214 -0.5746
 8581SOL    HW225922   7.104   8.553   5.202  0.5190 -1.2567 -1.3170
 8582SOL     OW25923   4.057   6.214   8.856 -0.6948  0.0472 -0.2957
 8582SOL    HW125924   4.097   6.166   8.935 -0.6304 -1.1029 -1.0062
 8582SOL    HW225925   4.035   6.308   8.882  0.3989  0.0338  0.7569
 8583SOL     OW25926   7.925   0.271   1.424 -0.1158  0.1941  0.0940
 8583SOL    HW125927   7.863   0.349   1.432 -0.0124  0.3679 -0.7522
 8583SOL    HW225928   8.017   0.303   1.402 -0.6231 -0.2644 -3.1001
 8584SOL     OW25929   3.176   5.832   5.691  0.1576 -0.0245  0.2756
 8584SOL    HW125930   3.137   5.751   5.735 -0.0209 -0.8781 -1.4037
 8584SOL    HW225931   3.115   5.910   5.703  0.6620  0.0992  2.5227
 8585SOL     OW25932   0.755   0.872   7.273 -0.0542  0.2387 -0.4582
 8585SOL    HW125933   0.816   0.793   7.267 -0.2519 -0.1465  1.8361
 8585SOL    HW225934   0.697   0.864   7.354 -0.5026  2.4586 -0.4874
 8586SOL     OW25935   5.290   5.498   7.769 -0.6234  0.1264 -0.9876
 8586SOL    HW125936   5.320   5.497   7.864 -0.5245 -2.3055 -1.0015
 8586SOL    HW225937   5.353   5.445   7.713 -2.8022 -1.9080 -1.6827
 8587SOL     OW25938   6.623   5.071   6.362  0.7431 -0.1743 -0.2463
 8587SOL    HW125939   6.573   5.129   6.427 -2.0233 -2.8610  0.2443
 8587SOL    HW225940   6.616   5.111   6.271 -3.6221 -0.9214 -0.4489
 8588SOL     OW25941   0.769   4.272   1.570  0.4023  0.2773  0.5523
 8588SOL    HW125942   0.823   4.274   1.654 -0.4980  0.0597  1.1411
 8588SOL    HW225943   0.677   4.305   1.588  0.1928  0.2196 -0.3514
 8589SOL     OW25944   2.808   6.779   4.317 -0.0782 -0.3645 -0.2733
 8589SOL    HW125945   2.807   6.844   4.241 -1.1210  1.4970  1.2168
 8589SOL    HW225946   2.797   6.686   4.282  3.6692 -0.1016 -2.6930
 8590SOL     OW25947   8.039   5.486   8.127 -0.0820  0.6379 -0.0014
 8590SOL    HW125948   8.068   5.517   8.036 -0.3551 -1.8883 -1.0209
 8590SOL    HW225949   8.079   5.396   8.146  0.0256  1.1407  2.4455
 8591SOL     OW25950   4.804   3.901   2.113 -0.0840  0.2852  0.4746
 8591SOL    HW125951   4.826   3.998   2.118 -0.0284  0.3238 -0.3375
 8591SOL    HW225952   4.765   3.880   2.023  1.1280 -0.6829  0.1365
 8592SOL     OW25953   6.937   5.438   0.423  0.5672 -0.4236  0.5336
 8592SOL    HW125954   6.893   5.526   0.405  0.9707 -0.2106  0.5760
 8592SOL    HW225955   6.871   5.376   0.468 -0.2365 -0.7267 -1.0050
 8593SOL     OW25956   2.570   6.369   2.617 -0.4390 -0.4149  0.4686
 8593SOL    HW125957   2.655   6.414   2.589 -2.1829  1.6961 -1.8062
 8593SOL    HW225958   2.555   6.384   2.715 -0.0995  2.5839  0.1390
 8594SOL     OW25959   5.373   1.507   3.771 -0.6097 -0.4573  0.1461
 8594SOL    HW125960   5.430   1.585   3.743  1.5861 -1.9482  0.2605
 8594SOL    HW225961   5.396   1.481   3.865  0.2016 -2.4761 -0.5535
 8595SOL     OW25962   2.233   3.822   8.298  0.2932  0.3023  0.2414
 8595SOL    HW125963   2.134   3.827   8.283  0.2509 -1.7280 -0.3785
 8595SOL    HW225964   2.252   3.824   8.396 -0.4339 -0.1570  0.3996
 8596SOL     OW25965   4.021   3.963   7.262  0.0169 -0.1769  0.0328
 8596SOL    HW125966   3.948   3.940   7.198 -0.8423  0.6495  0.6768
 8596SOL    HW225967   4.084   4.027   7.218 -1.2481  1.3685  0.3533
 8597SOL     OW25968   5.490   1.896   3.921 -0.0539  0.2012 -0.4397
 8597SOL    HW125969   5.437   1.914   3.838  1.3714  2.2279 -0.9953
 8597SOL    HW225970   5.429   1.863   3.993 -1.4739 -0.7142 -1.9963
 8598SOL     OW25971   2.694   8.570   2.572 -0.1517 -1.0849  0.6641
 8598SOL    HW125972   2.718   8.667   2.574  1.9092 -1.5545  1.7076
 8598SOL    HW225973   2.664   8.545   2.480  0.0458  0.3666  0.1744
 8599SOL     OW25974   1.168   2.532   6.492 -0.0954 -0.0038  0.0839
 8599SOL    HW125975   1.223   2.513   6.410 -0.2054 -1.7883  0.3868
 8599SOL    HW225976   1.084   2.578   6.465  0.3556  0.3988 -0.6771
 8600SOL     OW25977   0.550   4.248   4.823 -0.0331  1.3537 -0.9020
 8600SOL    HW125978   0.478   4.307   4.785  1.3559  3.6705 -0.1567
 8600SOL    HW225979   0.632   4.257   4.767  0.6493  1.3036  0.0650
 8601SOL     OW25980   0.583   5.247   3.389  0.4606  0.0349 -0.2936
 8601SOL    HW125981   0.623   5.182   3.324  1.2223 -0.3257  0.5199
 8601SOL    HW225982   0.485   5.256   3.371  0.5108 -0.6671 -0.9710
 8602SOL     OW25983   6.064   1.359   5.610 -0.3826 -0.0069 -0.2456
 8602SOL    HW125984   6.062   1.454   5.639  0.7802  0.0171 -0.1662
 8602SOL    HW225985   6.022   1.350   5.520 -1.2909  0.4273  0.1259
 8603SOL     OW25986   0.338   7.606   0.235  0.0500 -0.5096  0.0222
 8603SOL    HW125987   0.416   7.655   0.196  0.1063 -1.1749 -0.7112
 8603SOL    HW225988   0.284   7.565   0.162 -1.6727  0.9085  0.4202
 8604SOL     OW25989   2.683   2.356   4.910  0.2853 -0.4844 -0.0829
 8604SOL    HW125990   2.729   2.391   4.991  0.4333 -3.0033  0.9819
 8604SOL    HW225991   2.584   2.353   4.926  0.0724  1.0746 -0.8675
 8605SOL     OW25992   4.782   5.972   2.438 -0.5858 -0.0050 -0.2653
 8605SOL    HW125993   4.730   6.048   2.477 -0.3112  0.8410 -1.4685
 8605SOL    HW225994   4.833   6.005   2.358  0.0353 -1.3247 -0.4335
 8606SOL     OW25995   8.423   0.870   1.440  0.0348  0.1188 -0.0130
 8606SOL    HW125996   8.488   0.928   1.488  0.4973 -0.0602 -0.4116
 8606SOL    HW225997   8.368   0.820   1.507 -0.9258  1.6015  0.3454
 8607SOL     OW25998   2.761   3.541   7.547 -0.3531 -0.4090  0.8820
 8607SOL    HW125999   2.720   3.613   7.603  0.5278  0.2963  0.6534
 8607SOL    HW226000   2.852   3.519   7.583 -0.5299 -1.2613  0.8186
 8608SOL     OW26001   4.456   5.355   3.274 -0.3741  0.4316 -0.2344
 8608SOL    HW126002   4.372   5.307   3.302  1.2218 -2.1484  0.4788
 8608SOL    HW226003   4.529   5.335   3.340  1.4072  0.7428 -2.0101
 8609SOL     OW26004   8.790   2.446   0.700 -0.2442  0.0183  0.6186
 8609SOL    HW126005   8.763   2.372   0.639  0.8056 -0.0565  0.2375
 8609SOL    HW226006   8.815   2.527   0.646  1.9470 -0.4568  0.8548
 8610SOL     OW26007   8.447   0.816   2.982  0.6046 -0.4254 -0.2696
 8610SOL    HW126008   8.405   0.764   2.908  2.5384 -3.0639  0.3777
 8610SOL    HW226009   8.395   0.801   3.067  0.9552 -1.0015 -0.1583
 8611SOL     OW26010   0.523   7.227   7.920 -0.0423  0.1042  0.5446
 8611SOL    HW126011   0.543   7.129   7.921  0.4482  0.1967  0.2971
 8611SOL    HW226012   0.552   7.266   7.832 -1.1102  0.2974  0.2601
 8612SOL     OW26013   1.224   7.598   6.483 -0.5026 -0.3196  0.1733
 8612SOL    HW126014   1.134   7.556   6.497 -0.6201  0.1354  0.7979
 8612SOL    HW226015   1.292   7.526   6.469 -0.9419 -0.6722 -0.2222
 8613SOL     OW26016   0.624   1.532   4.526  0.1163 -0.3874 -0.2681
 8613SOL    HW126017   0.716   1.555   4.559  0.4429 -2.1866  0.2199
 8613SOL    HW226018   0.628   1.515   4.428  0.4246 -0.8969 -0.1761
 8614SOL     OW26019   6.161   8.501   0.920  0.2598  0.7187 -0.5914
 8614SOL    HW126020   6.231   8.509   0.849  0.3944  1.2107 -0.4066
 8614SOL    HW226021   6.174   8.573   0.988  0.3604  0.0362  0.1366
 8615SOL     OW26022   2.019   6.324   8.852 -0.1668 -0.0819 -0.3373
 8615SOL    HW126023   1.925   6.289   8.860  0.3031 -1.4117 -0.2821
 8615SOL    HW226024   2.078   6.274   8.916  0.3949  1.5185  0.4480
 8616SOL     OW26025   2.206   3.974   3.422  0.0050  0.2399 -0.5809
 8616SOL    HW126026   2.286   3.916   3.432 -1.0481 -1.0317  1.0266
 8616SOL    HW226027   2.167   3.963   3.331  1.5893  0.8509 -1.3716
 8617SOL     OW26028   3.543   3.273   0.775  0.4020 -0.1447 -0.3653
 8617SOL    HW126029   3.565   3.209   0.702 -0.5579 -0.1719 -0.6532
 8617SOL    HW226030   3.561   3.367   0.744 -1.3014 -0.0520 -1.1736
 8618SOL     OW26031   3.743   5.695   5.894 -0.5473 -0.0539  0.4132
 8618SOL    HW126032   3.657   5.680   5.941 -0.2455 -0.7096  0.7658
 8618SOL    HW226033   3.816   5.707   5.961 -0.6301  2.2793  0.1588
 8619SOL     OW26034   5.276   6.536   5.620 -0.2260  0.0590  0.1210
 8619SOL    HW126035   5.354   6.481   5.651  0.5980  2.0974  1.9288
 8619SOL    HW226036   5.192   6.482   5.629  0.5313 -0.9077  1.9569
 8620SOL     OW26037   5.788   0.274   2.841  0.6931  0.5735  0.4612
 8620SOL    HW126038   5.777   0.181   2.875  0.6607  0.7338  0.8923
 8620SOL    HW226039   5.881   0.286   2.807 -0.1430 -0.5904 -2.6029
 8621SOL     OW26040   5.992   1.415   7.082 -0.5949  0.4262 -0.5359
 8621SOL    HW126041   5.968   1.446   6.990 -0.4937  0.9121 -0.3994
 8621SOL    HW226042   6.042   1.328   7.076 -1.1806  0.1020 -0.8995
 8622SOL     OW26043   7.671   1.188   2.563  0.1269 -0.7005 -0.6285
 8622SOL    HW126044   7.589   1.130   2.567 -1.5321  1.5739 -0.0271
 8622SOL    HW226045   7.710   1.196   2.655 -1.7745  1.9253  0.0446
 8623SOL     OW26046   7.731   4.521   2.051  0.2030 -0.3124  0.3335
 8623SOL    HW126047   7.642   4.485   2.023 -0.2947 -0.1337  1.6160
 8623SOL    HW226048   7.754   4.600   1.995  1.0208 -2.1351 -2.1093
 8624SOL     OW26049   1.061   2.846   2.129 -0.0219  0.3913 -0.2105
 8624SOL    HW126050   1.027   2.929   2.173 -1.0521  0.4126 -1.0067
 8624SOL    HW226051   1.158   2.833   2.151 -0.1505  1.1681  0.8619
 8625SOL     OW26052   0.857   2.283   3.662  0.5634  0.4263  0.1735
 8625SOL    HW126053   0.798   2.288   3.742  0.0240  0.9211 -0.2439
 8625SOL    HW226054   0.945   2.327   3.683  1.1865 -1.1957  1.1146
 8626SOL     OW26055   7.397   8.041   2.773 -0.0080  0.1512  0.2233
 8626SOL    HW126056   7.427   8.104   2.702 -1.6723 -1.5740 -2.1805
 8626SOL    HW226057   7.322   8.081   2.825  1.1459  1.3748  1.0231
 8627SOL     OW26058   8.456   2.694   8.170  0.1083  0.6390 -0.1269
 8627SOL    HW126059   8.391   2.631   8.126 -1.0431  1.1904  0.7247
 8627SOL    HW226060   8.419   2.787   8.165  0.6419  0.8991  0.7462
 8628SOL     OW26061   7.223   6.782   3.705 -0.6717  0.0945  0.1563
 8628SOL    HW126062   7.159   6.811   3.632 -1.0770 -1.7376 -0.2708
 8628SOL    HW226063   7.193   6.694   3.741 -0.3538  0.8704  2.4517
 8629SOL     OW26064   4.765   6.046   6.457  0.0810  0.0963 -0.3662
 8629SOL    HW126065   4.841   6.110   6.446 -0.8066  0.9380 -1.8785
 8629SOL    HW226066   4.698   6.061   6.385 -1.2520 -1.0400  0.5887
 8630SOL     OW26067   7.294   6.668   5.197  0.2779 -0.1436  0.2999
 8630SOL    HW126068   7.302   6.714   5.285 -1.0035 -0.7629  0.7642
 8630SOL    HW226069   7.199   6.670   5.167  0.0382 -2.9603  0.6262
 8631SOL     OW26070   6.397   4.070   7.689 -0.6598  0.4250  0.7195
 8631SOL    HW126071   6.334   4.050   7.614 -0.5594  0.4913  0.6165
 8631SOL    HW226072   6.469   4.132   7.656  0.4888 -1.0565  0.3489
 8632SOL     OW26073   5.850   2.982   2.937  0.1559  0.4022 -0.3355
 8632SOL    HW126074   5.807   2.923   2.869  0.5023  1.4979 -1.5470
 8632SOL    HW226075   5.780   3.020   2.998 -0.3014  0.3412 -0.8210
 8633SOL     OW26076   0.411   5.777   2.939 -0.3632  1.1287  0.2341
 8633SOL    HW126077   0.356   5.783   2.856  1.3455  0.5821 -0.9838
 8633SOL    HW226078   0.434   5.870   2.969 -1.6268  1.3554  0.5831
 8634SOL     OW26079   4.931   6.717   3.984 -0.0796 -0.2562 -0.4718
 8634SOL    HW126080   4.919   6.807   3.942  1.2110  0.6643  1.0223
 8634SOL    HW226081   4.847   6.692   4.032  0.0099  0.8282  0.2939
 8635SOL     OW26082   6.792   4.405   4.024 -0.0518  0.1204  0.1454
 8635SOL    HW126083   6.771   4.319   4.071 -0.2083  0.2462  0.3049
 8635SOL    HW226084   6.798   4.479   4.091  2.1409 -0.1136  0.2921
 8636SOL     OW26085   2.086   4.459   1.595 -0.2307  0.4426  0.1346
 8636SOL    HW126086   1.992   4.480   1.568  0.2869  0.8078 -1.4554
 8636SOL    HW226087   2.087   4.372   1.644 -1.2280 -0.2654 -1.0394
 8637SOL     OW26088   5.296   7.156   7.689 -0.2067 -0.4423  0.4429
 8637SOL    HW126089   5.283   7.248   7.725  1.0635 -0.6749  1.5880
 8637SOL    HW226090   5.261   7.152   7.595 -2.4108  0.5455  1.1536
 8638SOL     OW26091   6.663   7.154   4.829 -0.1353 -0.0912 -0.0632
 8638SOL    HW126092   6.730   7.210   4.782 -2.4507  2.2772 -0.7964
 8638SOL    HW226093   6.618   7.093   4.763  0.8573 -1.2878  0.3276
 8639SOL     OW26094   4.553   4.999   2.654  0.0825 -0.0812 -0.2150
 8639SOL    HW126095   4.490   5.010   2.731 -1.3814 -0.3181 -1.3460
 8639SOL    HW226096   4.504   5.008   2.568  1.3730 -1.3776 -1.1545
 8640SOL     OW26097   2.426   6.077   4.051  0.3187 -0.2464  0.2756
 8640SOL    HW126098   2.449   6.117   4.140  0.3507  0.4115 -0.0241
 8640SOL    HW226099   2.402   5.981   4.064 -1.5112  0.2899  1.2713
 8641SOL     OW26100   2.952   5.311   1.284 -0.1683 -0.7125  0.0888
 8641SOL    HW126101   3.027   5.298   1.349 -1.7451  1.1942  2.4275
 8641SOL    HW226102   2.901   5.226   1.275 -0.3616 -0.8220  1.9481
 8642SOL     OW26103   1.787   7.797   6.679  0.3224 -0.2080 -0.0712
 8642SOL    HW126104   1.742   7.811   6.591  1.1666  0.4386 -0.4251
 8642SOL    HW226105   1.752   7.863   6.746  0.6176  0.1904 -0.3022
 8643SOL     OW26106   5.601   2.719   6.080 -0.0260  0.4843 -0.8250
 8643SOL    HW126107   5.631   2.798   6.027 -0.7999  0.7991 -0.8148
 8643SOL    HW226108   5.632   2.729   6.175 -1.4998  1.6256 -0.4183
 8644SOL     OW26109   1.119   3.894   7.696 -0.3075  0.1826  0.6393
 8644SOL    HW126110   1.045   3.878   7.762  0.3590  0.6899  1.5300
 8644SOL    HW226111   1.095   3.852   7.608 -1.8495  0.7311  0.7789
 8645SOL     OW26112   2.013   8.364   8.764  0.0771  0.4153 -0.1554
 8645SOL    HW126113   1.925   8.325   8.791 -0.5904  1.0368 -1.3761
 8645SOL    HW226114   2.019   8.459   8.795 -0.1601  0.7265 -1.0449
 8646SOL     OW26115   1.163   8.340   1.164  0.3284 -0.2618 -0.0436
 8646SOL    HW126116   1.241   8.399   1.183 -0.5992  0.4340  1.8534
 8646SOL    HW226117   1.080   8.380   1.201 -0.5616 -2.1052  0.1086
 8647SOL     OW26118   5.702   2.578   0.597 -0.0912 -0.0340  0.0553
 8647SOL    HW126119   5.603   2.572   0.609 -0.0185  0.0907  0.7988
 8647SOL    HW226120   5.746   2.588   0.687  0.4172  2.6313 -0.3853
 8648SOL     OW26121   0.149   4.069   4.752 -0.1461 -0.4767 -0.4552
 8648SOL    HW126122   0.132   4.022   4.838 -1.5702 -1.6454 -1.3225
 8648SOL    HW226123   0.241   4.047   4.719  0.5878  0.3472  0.9443
 8649SOL     OW26124   8.619   2.432   3.848 -0.6789 -0.4118 -0.5716
 8649SOL    HW126125   8.572   2.348   3.875 -1.4658 -0.1907 -1.1970
 8649SOL    HW226126   8.599   2.504   3.914  0.3757 -0.8177  0.2248
 8650SOL     OW26127   1.437   5.085   0.117 -0.2561  0.4494  0.3853
 8650SOL    HW126128   1.418   5.178   0.085 -0.6383 -0.0555 -0.9059
 8650SOL    HW226129   1.436   5.022   0.040 -2.8206 -1.0822  1.5180
 8651SOL     OW26130   6.403   3.044   3.216  0.1678 -0.3591  0.3955
 8651SOL    HW126131   6.481   3.067   3.274  1.6501 -0.2867 -1.5289
 8651SOL    HW226132   6.376   3.123   3.162 -0.7649 -0.5990  0.4797
 8652SOL     OW26133   8.812   1.320   5.379  0.0573 -0.4397  0.0273
 8652SOL    HW126134   8.780   1.291   5.469 -3.0922 -0.8587 -1.1267
 8652SOL    HW226135   8.868   1.248   5.338  0.1717 -0.9002  0.9722
 8653SOL     OW26136   0.029   2.484   1.191 -0.1630 -0.2848  0.1629
 8653SOL    HW126137   0.044   2.540   1.110 -1.3185 -0.5174 -0.2343
 8653SOL    HW226138  -0.034   2.530   1.253  0.1810 -0.4105  0.6086
 8654SOL     OW26139   8.522   8.838   6.783  0.0059  0.1380  0.6112
 8654SOL    HW126140   8.524   8.764   6.716  0.9062  0.4707  0.2427
 8654SOL    HW226141   8.440   8.831   6.839  0.0663 -1.1241  0.5706
 8655SOL     OW26142   2.738   0.813   7.639 -0.3009  0.2738  0.0399
 8655SOL    HW126143   2.706   0.900   7.678 -0.7179 -0.3382  1.1106
 8655SOL    HW226144   2.711   0.809   7.542 -1.0808  0.9463  0.2097
 8656SOL     OW26145   0.394   6.474   0.150 -0.2929  0.0068 -0.1113
 8656SOL    HW126146   0.318   6.409   0.149 -1.3913  1.2270 -0.0929
 8656SOL    HW226147   0.408   6.510   0.058 -1.0167  1.1688  0.2075
 8657SOL     OW26148   7.706   8.699   0.570 -0.5392  0.1545  0.4000
 8657SOL    HW126149   7.704   8.783   0.515 -1.8437 -0.3096 -0.2844
 8657SOL    HW226150   7.616   8.683   0.610  0.2591  0.2261  2.3325
 8658SOL     OW26151   4.596   3.288   6.491  0.2095  0.2425  0.0965
 8658SOL    HW126152   4.561   3.264   6.400 -0.0063  1.4641 -0.1497
 8658SOL    HW226153   4.533   3.350   6.536 -0.5281 -1.6266  1.7887
 8659SOL     OW26154   6.426   0.305   2.324 -0.2807  0.3871 -0.1399
 8659SOL    HW126155   6.402   0.384   2.268  1.1601  0.1108 -1.2207
 8659SOL    HW226156   6.516   0.271   2.296  0.4962  0.1979  2.3201
 8660SOL     OW26157   4.572   3.712   5.578  0.4076  0.1420 -0.2365
 8660SOL    HW126158   4.638   3.722   5.653  0.1684  1.2000 -0.1481
 8660SOL    HW226159   4.609   3.752   5.495  0.0984  0.2609 -0.3205
 8661SOL     OW26160   8.851   6.819   5.705 -0.2572 -0.2235  0.2903
 8661SOL    HW126161   8.946   6.847   5.687 -0.0768 -0.0227  1.4886
 8661SOL    HW226162   8.842   6.792   5.800 -1.7664  1.3305  0.6396
 8662SOL     OW26163   8.348   2.505   2.696  0.1883 -0.3878  0.1778
 8662SOL    HW126164   8.426   2.448   2.723  0.1548 -0.9063 -0.7784
 8662SOL    HW226165   8.264   2.450   2.701 -0.1164  0.1330  1.0856
 8663SOL     OW26166   5.796   3.884   8.715 -0.4416 -0.0248 -0.0924
 8663SOL    HW126167   5.832   3.939   8.639  1.3754  1.2335  1.5898
 8663SOL    HW226168   5.851   3.901   8.797 -0.7784 -3.2309  0.9128
 8664SOL     OW26169   4.442   2.288   3.429  0.3975  0.8459 -0.0402
 8664SOL    HW126170   4.492   2.301   3.343 -0.6262  0.2034 -0.7656
 8664SOL    HW226171   4.425   2.190   3.442  1.9050  0.7759  1.7164
 8665SOL     OW26172   4.623   4.591   8.612 -0.5121  0.3900 -0.0322
 8665SOL    HW126173   4.570   4.509   8.588  0.7832 -0.3531 -0.4828
 8665SOL    HW226174   4.649   4.586   8.708  2.0028 -1.2652 -0.6790
 8666SOL     OW26175   3.089   5.436   1.027  0.5425 -0.2467 -0.3861
 8666SOL    HW126176   3.167   5.376   1.046  0.4272  0.2120  1.7844
 8666SOL    HW226177   3.004   5.385   1.038  0.3774  0.5278  2.9702
 8667SOL     OW26178   7.773   2.907   6.120  0.2719 -0.6325  0.0733
 8667SOL    HW126179   7.851   2.857   6.158 -0.4563 -0.1911  2.3144
 8667SOL    HW226180   7.798   3.004   6.110 -0.2053 -0.3128  1.6548
 8668SOL     OW26181   7.153   5.616   8.173 -0.4311  0.3607  0.5237
 8668SOL    HW126182   7.106   5.701   8.150  1.3241  1.3443  0.3874
 8668SOL    HW226183   7.087   5.541   8.175 -1.9389  1.6195  0.1351
 8669SOL     OW26184   5.894   1.812   6.297  0.1871  0.2467 -0.9083
 8669SOL    HW126185   5.827   1.861   6.353 -1.1410 -1.8450 -0.5761
 8669SOL    HW226186   5.986   1.841   6.323 -0.4984  2.4112 -0.6300
 8670SOL     OW26187   2.011   1.776   0.542  0.6230 -0.1001  0.1190
 8670SOL    HW126188   1.924   1.821   0.559 -0.8916 -2.2426 -1.4915
 8670SOL    HW226189   2.047   1.805   0.453 -0.0243 -1.4857 -0.6168
 8671SOL     OW26190   1.352   5.406   4.323  0.2039 -0.0511 -0.0115
 8671SOL    HW126191   1.451   5.397   4.324  0.1452 -0.8459 -0.8313
 8671SOL    HW226192   1.314   5.368   4.408  0.5674 -0.0773  0.1407
 8672SOL     OW26193   1.042   1.065   3.260  0.1676  0.4085  0.5267
 8672SOL    HW126194   1.130   1.082   3.215  0.3068  2.2477  1.3971
 8672SOL    HW226195   0.982   1.144   3.248 -1.7255 -1.1305 -0.7332
 8673SOL     OW26196   1.784   6.251   0.055 -0.3410 -0.1877  0.2968
 8673SOL    HW126197   1.697   6.259   0.005  1.1656  1.6125 -2.2818
 8673SOL    HW226198   1.782   6.169   0.111 -3.3974 -0.6402 -0.2673
 8674SOL     OW26199   4.904   0.646   4.559  0.2042  0.0445  0.1867
 8674SOL    HW126200   4.918   0.688   4.648  0.8390 -2.3388  1.2745
 8674SOL    HW226201   4.835   0.698   4.508  0.0620  1.6275  1.9120
 8675SOL     OW26202   7.352   1.222   7.692  0.2364 -0.8584 -0.5181
 8675SOL    HW126203   7.336   1.318   7.717  1.1308 -1.1236  1.2770
 8675SOL    HW226204   7.268   1.181   7.658 -0.8020 -0.0619  0.9655
 8676SOL     OW26205   0.148   2.295   6.223  0.1957 -0.3014  0.3969
 8676SOL    HW126206   0.098   2.366   6.173 -0.6481 -1.0242  0.1910
 8676SOL    HW226207   0.234   2.276   6.176 -0.2464 -0.4397 -0.3794
 8677SOL     OW26208   7.566   1.303   6.116 -0.3283  0.0542  0.0363
 8677SOL    HW126209   7.545   1.226   6.176  1.7700  1.5478  2.8980
 8677SOL    HW226210   7.655   1.288   6.072 -1.2093 -0.3674 -1.7110
 8678SOL     OW26211   7.621   3.370   2.780 -0.2528  0.2663  0.2576
 8678SOL    HW126212   7.660   3.433   2.848  1.4411 -1.3092  0.8367
 8678SOL    HW226213   7.690   3.302   2.755 -1.3533 -0.1403 -1.8955
 8679SOL     OW26214   7.993   3.486   1.498  0.4767 -0.1792 -0.1716
 8679SOL    HW126215   8.076   3.540   1.512 -0.1142 -0.0570  4.4043
 8679SOL    HW226216   7.914   3.547   1.496  0.0803 -0.5440  1.8261
 8680SOL     OW26217   1.826   8.421   5.733  0.4256  0.2860  0.3285
 8680SOL    HW126218   1.748   8.381   5.780 -0.3007 -0.2998 -1.3134
 8680SOL    HW226219   1.822   8.521   5.741 -1.2621  0.3460 -0.8704
 8681SOL     OW26220   1.456   6.454   7.541 -0.3468 -0.8966  0.0028
 8681SOL    HW126221   1.377   6.482   7.595 -0.4497  0.8907 -1.0126
 8681SOL    HW226222   1.426   6.415   7.454 -0.1719  1.0840 -1.0097
 8682SOL     OW26223   1.283   0.218   2.780  0.3743  0.5686 -0.2111
 8682SOL    HW126224   1.204   0.272   2.751  0.3119  0.9738  0.6601
 8682SOL    HW226225   1.317   0.254   2.867  2.4911  1.4072 -1.3106
 8683SOL     OW26226   3.800   5.405   6.036  0.2181  0.4416  0.9028
 8683SOL    HW126227   3.746   5.340   5.983 -0.6459  1.6976  0.1806
 8683SOL    HW226228   3.897   5.392   6.015  0.0700 -0.7041  0.8920
 8684SOL     OW26229   7.948   4.205   7.426  0.5569 -0.3226  0.3180
 8684SOL    HW126230   7.877   4.135   7.426  1.3633 -1.1555 -0.0330
 8684SOL    HW226231   8.021   4.179   7.362  0.8435  0.8649  0.1341
 8685SOL     OW26232   7.408   6.154   5.722 -0.0549 -0.3129 -0.1712
 8685SOL    HW126233   7.390   6.151   5.821  1.7049 -0.8961  0.1688
 8685SOL    HW226234   7.382   6.243   5.686 -1.6077 -0.4084  0.6126
 8686SOL     OW26235   3.503   1.169   0.056 -0.2499 -0.2442  0.1632
 8686SOL    HW126236   3.460   1.256   0.033  0.3873  0.6965  2.2818
 8686SOL    HW226237   3.594   1.165   0.015  0.8714  1.4041  2.2685
 8687SOL     OW26238   8.514   0.139   4.310 -0.1667  0.3546  0.5000
 8687SOL    HW126239   8.498   0.164   4.215 -2.9429 -1.4913  0.3804
 8687SOL    HW226240   8.438   0.173   4.366 -0.5607 -1.8136  1.3783
 8688SOL     OW26241   5.194   6.489   3.957 -0.6200 -0.1843  0.0322
 8688SOL    HW126242   5.212   6.562   4.022 -0.1187 -0.5100  0.2612
 8688SOL    HW226243   5.137   6.419   4.001 -0.3256 -0.3783  0.1084
 8689SOL     OW26244   2.632   3.635   2.263  0.5271 -0.0945  0.1813
 8689SOL    HW126245   2.593   3.696   2.194  2.3760 -0.0411 -0.8662
 8689SOL    HW226246   2.558   3.593   2.315 -0.8890  0.5985 -1.1891
 8690SOL     OW26247   5.708   2.776   0.382 -0.3767 -0.1459  0.4757
 8690SOL    HW126248   5.700   2.702   0.449  0.4745 -1.7257 -1.0899
 8690SOL    HW226249   5.792   2.826   0.398 -1.5048  1.2805  2.2557
 8691SOL     OW26250   0.729   4.686   5.834 -0.3731  0.3176  0.2598
 8691SOL    HW126251   0.761   4.776   5.863 -0.6414  0.7782 -0.8246
 8691SOL    HW226252   0.666   4.649   5.902  0.4431  0.5389  1.1565
 8692SOL     OW26253   7.653   5.222   3.404 -0.3098 -0.2899 -0.2355
 8692SOL    HW126254   7.559   5.230   3.437  0.3471 -0.8229  1.9353
 8692SOL    HW226255   7.694   5.138   3.440  1.3370  0.4663 -0.2398
 8693SOL     OW26256   4.280   4.441   8.809  0.0906 -0.4600 -0.6317
 8693SOL    HW126257   4.357   4.448   8.873 -0.8148  0.5459  0.3794
 8693SOL    HW226258   4.220   4.366   8.838 -0.1002 -0.2724 -0.5412
 8694SOL     OW26259   5.515   4.363   3.280 -0.1697 -0.1401 -0.1928
 8694SOL    HW126260   5.433   4.411   3.248  0.1917  2.3863  2.2748
 8694SOL    HW226261   5.494   4.311   3.362  0.2752 -1.2249 -0.7509
 8695SOL     OW26262   0.691   6.623   8.419 -0.4002  0.1081 -0.4760
 8695SOL    HW126263   0.715   6.663   8.330 -0.4205  1.3258  0.0377
 8695SOL    HW226264   0.613   6.562   8.408  0.6048 -1.0269 -1.5577
 8696SOL     OW26265   2.725   2.995   2.828 -0.2746  0.1256 -0.2950
 8696SOL    HW126266   2.797   3.060   2.852 -1.2769  1.5591 -1.0242
 8696SOL    HW226267   2.692   3.015   2.736 -1.2580 -0.8325 -0.1711
 8697SOL     OW26268   3.661   8.117   2.664 -0.1329  0.0981 -0.4908
 8697SOL    HW126269   3.598   8.179   2.711 -0.9098 -0.0262 -1.3236
 8697SOL    HW226270   3.755   8.135   2.694 -0.3052  1.8508 -0.8712
 8698SOL     OW26271   7.208   4.886   2.856  0.3084 -0.2811 -0.1815
 8698SOL    HW126272   7.256   4.915   2.774 -0.4841 -2.5508 -1.5346
 8698SOL    HW226273   7.114   4.920   2.854 -0.3435 -2.0488 -1.3090
 8699SOL     OW26274   5.348   2.598   3.846  0.0262 -0.7344  0.1533
 8699SOL    HW126275   5.296   2.679   3.872  2.4265  0.7900  0.5089
 8699SOL    HW226276   5.316   2.519   3.900 -2.4834 -0.1419 -0.3480
 8700SOL     OW26277   1.249   0.235   3.846  0.7966  0.4430 -0.3836
 8700SOL    HW126278   1.264   0.258   3.942 -0.2953 -1.2093  0.2384
 8700SOL    HW226279   1.286   0.144   3.828  1.1124  0.7967 -1.5812
 8701SOL     OW26280   5.917   3.730   1.281  0.0029  0.2612  0.1348
 8701SOL    HW126281   5.934   3.723   1.183 -0.5871 -0.0132  0.0440
 8701SOL    HW226282   6.002   3.750   1.329 -0.1431  3.6242 -0.7292
 8702SOL     OW26283   8.621   0.378   5.133  0.5218 -0.7666 -0.1470
 8702SOL    HW126284   8.525   0.348   5.131  0.0892  0.5224  0.3313
 8702SOL    HW226285   8.675   0.320   5.071 -0.0614 -3.1361  1.4028
 8703SOL     OW26286   0.087   6.898   4.247 -0.1638  0.6188  0.1276
 8703SOL    HW126287   0.125   6.946   4.326  1.4455 -0.7358  0.2448
 8703SOL    HW226288   0.162   6.864   4.190 -1.1370 -2.5788  0.5659
 8704SOL     OW26289   1.260   3.731   2.277 -0.3206  0.5958 -0.7154
 8704SOL    HW126290   1.218   3.685   2.199 -1.0754  0.3775 -0.1899
 8704SOL    HW226291   1.223   3.823   2.286 -0.0703  0.7004 -0.7451
 8705SOL     OW26292   6.210   1.275   0.765 -0.2705  0.2184 -0.0457
 8705SOL    HW126293   6.245   1.350   0.822  1.3083 -0.9656  0.6264
 8705SOL    HW226294   6.116   1.254   0.791  0.3039 -0.0734  1.9322
 8706SOL     OW26295   7.391   0.897   3.787 -0.2682 -0.2059 -0.4285
 8706SOL    HW126296   7.361   0.902   3.882 -1.4829  2.1985 -0.8523
 8706SOL    HW226297   7.475   0.843   3.781  0.5544  0.6422  2.2081
 8707SOL     OW26298   5.764   2.025   1.065 -0.1126 -0.0237  0.0710
 8707SOL    HW126299   5.689   1.985   1.118  1.9198 -1.5976  1.9341
 8707SOL    HW226300   5.793   2.111   1.108  0.8470 -0.7677  0.9562
 8708SOL     OW26301   3.457   8.524   8.484 -0.0806 -0.1958  0.3790
 8708SOL    HW126302   3.525   8.526   8.411 -1.9462  0.9058 -1.4066
 8708SOL    HW226303   3.504   8.514   8.572  2.3849  0.5306 -0.7584
 8709SOL     OW26304   0.578   4.040   5.971 -0.4817 -0.4795 -0.0082
 8709SOL    HW126305   0.601   4.127   5.929 -0.2119  0.2792  1.6381
 8709SOL    HW226306   0.509   3.993   5.916 -0.8574  0.9031 -0.7520
 8710SOL     OW26307   5.066   4.601   2.333  0.4805  0.2920  0.2638
 8710SOL    HW126308   5.156   4.632   2.366  0.4347  0.6455  0.0685
 8710SOL    HW226309   4.995   4.632   2.397  0.5948 -1.0128  1.0611
 8711SOL     OW26310   2.688   2.906   4.961  0.5049 -0.3547 -0.2226
 8711SOL    HW126311   2.625   2.855   5.019 -1.5188  2.3490  0.2041
 8711SOL    HW226312   2.654   2.907   4.867 -2.0616  3.5446  0.5039
 8712SOL     OW26313   5.217   3.220   4.831 -0.5594  0.0911  0.1396
 8712SOL    HW126314   5.187   3.212   4.736 -3.2286  1.0923  0.8168
 8712SOL    HW226315   5.300   3.277   4.834 -1.0400  0.9540 -1.4999
 8713SOL     OW26316   3.660   2.078   8.127 -0.1742  0.1595 -0.2891
 8713SOL    HW126317   3.732   2.136   8.164 -1.5123  0.5867  1.8140
 8713SOL    HW226318   3.585   2.136   8.093  0.2386 -0.2851 -2.0623
 8714SOL     OW26319   1.672   7.840   8.803 -0.2178 -0.1606 -0.0529
 8714SOL    HW126320   1.673   7.744   8.831 -0.8754  0.3136  1.7000
 8714SOL    HW226321   1.742   7.854   8.733  0.7769 -1.6487  0.5844
 8715SOL     OW26322   0.415   4.989   4.962 -0.1498  0.5632 -0.2130
 8715SOL    HW126323   0.498   5.041   4.944  0.3077  0.1015  0.5031
 8715SOL    HW226324   0.355   5.043   5.021 -0.2923  0.8341 -0.6025
 8716SOL     OW26325   6.775   2.431   1.284 -0.0671 -0.4152 -0.2980
 8716SOL    HW126326   6.802   2.499   1.352 -1.4730 -0.0404 -0.0955
 8716SOL    HW226327   6.811   2.457   1.195 -0.7081  0.6646 -0.2449
 8717SOL     OW26328   2.548   6.212   0.156 -0.5112 -0.1705 -0.0445
 8717SOL    HW126329   2.546   6.210   0.056  1.2199 -1.4467 -0.0952
 8717SOL    HW226330   2.637   6.245   0.187 -0.7640 -0.4940  1.0780
 8718SOL     OW26331   8.410   1.069   7.228 -0.0052 -0.3326 -0.3082
 8718SOL    HW126332   8.314   1.072   7.254  0.1082 -1.0836  0.2311
 8718SOL    HW226333   8.421   1.102   7.134 -1.0370 -2.0178 -1.0502
 8719SOL     OW26334   5.462   5.805   6.784  0.3227  0.0497  0.2995
 8719SOL    HW126335   5.459   5.887   6.840  2.0638  0.0346  0.4480
 8719SOL    HW226336   5.465   5.830   6.687  0.8678  0.1616  0.3452
 8720SOL     OW26337   4.005   6.894   2.898  0.0907  0.7048  0.0399
 8720SOL    HW126338   3.962   6.937   2.978 -1.9459 -3.8841  1.7363
 8720SOL    HW226339   3.975   6.942   2.815 -1.7042  2.6881  1.6893
 8721SOL     OW26340   7.922   2.232   4.817  0.7758  1.0714 -0.1113
 8721SOL    HW126341   7.985   2.262   4.889  1.3878 -2.2980  0.9443
 8721SOL    HW226342   7.973   2.183   4.747 -0.2840  1.1992 -1.0022
 8722SOL     OW26343   1.667   5.498   8.693  0.1439  0.0781  0.1618
 8722SOL    HW126344   1.736   5.494   8.621 -0.0106 -0.4410  0.0399
 8722SOL    HW226345   1.611   5.580   8.681 -1.0764 -0.9298 -1.4227
 8723SOL     OW26346   4.777   1.628   1.070  0.0932 -0.0870 -0.1128
 8723SOL    HW126347   4.731   1.561   1.013  0.7964 -0.1131 -0.6635
 8723SOL    HW226348   4.712   1.669   1.134 -0.3975 -1.0869  0.0371
 8724SOL     OW26349   3.970   6.357   7.219 -0.2682  0.1797  0.5042
 8724SOL    HW126350   3.885   6.386   7.177 -0.8584 -0.4057  1.2601
 8724SOL    HW226351   3.951   6.288   7.289  0.9202 -0.6897  0.0063
 8725SOL     OW26352   2.176   3.324   2.019  0.4622  0.3555 -0.1013
 8725SOL    HW126353   2.219   3.269   1.948  0.9596 -0.3186  0.7088
 8725SOL    HW226354   2.228   3.409   2.031  0.5049  0.3710 -0.3768
 8726SOL     OW26355   0.592   4.512   5.249  0.3163  0.4502 -0.2689
 8726SOL    HW126356   0.611   4.553   5.160  0.3991  1.1453  0.0532
 8726SOL    HW226357   0.580   4.586   5.317  1.4465 -0.0754  0.5362
 8727SOL     OW26358   5.266   4.689   6.562  0.6022 -0.3632  0.3074
 8727SOL    HW126359   5.325   4.769   6.551  0.0568  0.1874  1.2517
 8727SOL    HW226360   5.316   4.617   6.609  0.7157 -0.1358  0.5366
 8728SOL     OW26361   3.100   7.688   0.710 -0.0076 -0.3347 -0.3954
 8728SOL    HW126362   3.089   7.589   0.714 -0.1516 -0.3285 -0.6183
 8728SOL    HW226363   3.143   7.714   0.624  0.1366 -0.2130 -0.2863
 8729SOL     OW26364   1.349   7.333   1.566  0.3356 -0.3984 -0.1245
 8729SOL    HW126365   1.340   7.234   1.571  3.5341 -0.7600  0.1181
 8729SOL    HW226366   1.340   7.363   1.471  2.0322 -1.3102 -0.6118
 8730SOL     OW26367   3.018   6.256   4.507  0.3432  0.3064 -1.1119
 8730SOL    HW126368   3.111   6.218   4.510  1.4494  2.8236 -1.1268
 8730SOL    HW226369   3.017   6.346   4.551 -2.3269 -0.0338 -0.2872
 8731SOL     OW26370   2.959   3.368   0.490  0.0393  0.0607 -0.0143
 8731SOL    HW126371   2.978   3.285   0.541 -0.5457 -0.3125 -0.3893
 8731SOL    HW226372   3.020   3.375   0.412 -0.9990 -0.8915 -0.9472
 8732SOL     OW26373   0.404   3.608   2.235 -0.0832 -0.1283  0.2036
 8732SOL    HW126374   0.311   3.646   2.231 -0.0195 -0.0288 -0.3803
 8732SOL    HW226375   0.400   3.512   2.263 -0.3797 -0.1881 -0.0375
 8733SOL     OW26376   6.284   1.760   5.135  0.2892 -0.3367 -0.5829
 8733SOL    HW126377   6.288   1.665   5.105  0.4254 -0.3811 -0.4277
 8733SOL    HW226378   6.367   1.782   5.187 -0.0455 -0.3301 -0.0437
 8734SOL     OW26379   3.563   8.846   7.126 -0.0590  0.2177  0.0801
 8734SOL    HW126380   3.587   8.899   7.207  0.7778 -0.0612  0.0217
 8734SOL    HW226381   3.612   8.759   7.127 -1.1687 -0.4229  0.0080
 8735SOL     OW26382   2.037   3.018   2.786 -0.1887  0.1658 -0.5032
 8735SOL    HW126383   1.944   3.029   2.821  1.0188  2.3782  2.5184
 8735SOL    HW226384   2.054   3.085   2.714 -0.5732  0.6192 -0.1798
 8736SOL     OW26385   0.218   3.834   7.946  0.1798 -0.1886  0.4962
 8736SOL    HW126386   0.176   3.849   7.856 -1.3025  0.2392  1.2294
 8736SOL    HW226387   0.212   3.918   8.000  0.8133 -0.5267  1.1148
 8737SOL     OW26388   0.150   0.765   4.148 -0.3231 -0.1059  0.3833
 8737SOL    HW126389   0.228   0.828   4.141 -0.0889 -0.1853  1.8531
 8737SOL    HW226390   0.080   0.790   4.082 -0.2472  1.7314  0.9528
 8738SOL     OW26391   4.422   6.282   6.403  0.2177  0.0755 -0.3223
 8738SOL    HW126392   4.450   6.369   6.364  0.7129  0.2459  0.4060
 8738SOL    HW226393   4.475   6.208   6.362 -1.1222 -0.0615 -1.9333
 8739SOL     OW26394   1.783   5.681   4.577 -0.6992 -0.4281  0.5256
 8739SOL    HW126395   1.744   5.762   4.533 -2.2389 -1.6227 -0.4050
 8739SOL    HW226396   1.721   5.649   4.649 -0.0464 -0.7086  0.9695
 8740SOL     OW26397   5.530   4.410   6.458 -0.4592  0.0168 -0.2905
 8740SOL    HW126398   5.443   4.410   6.410 -0.3160 -1.7935 -0.6221
 8740SOL    HW226399   5.543   4.498   6.503 -1.8512  0.7753 -1.2917
 8741SOL     OW26400   8.600   6.327   1.908 -0.0012  0.2259  0.2327
 8741SOL    HW126401   8.650   6.240   1.911  1.1781  0.8879  2.8087
 8741SOL    HW226402   8.547   6.337   1.992 -0.3627  1.8569 -0.1666
 8742SOL     OW26403   6.799   3.291   2.024 -0.1139  0.4007  0.5478
 8742SOL    HW126404   6.749   3.205   2.014  0.6618 -0.2444  1.8690
 8742SOL    HW226405   6.813   3.310   2.121  2.7340  0.2074  0.2604
 8743SOL     OW26406   6.047   5.534   7.787  0.4430 -0.3002  0.1527
 8743SOL    HW126407   6.063   5.443   7.749  0.3762 -1.1106  1.9514
 8743SOL    HW226408   6.119   5.596   7.756  0.2481 -0.8247 -1.4474
 8744SOL     OW26409   2.402   6.536   3.453  0.1049 -0.1640  0.2891
 8744SOL    HW126410   2.347   6.537   3.537 -1.2388 -0.8246 -0.5439
 8744SOL    HW226411   2.445   6.447   3.442 -0.2537 -0.3003 -0.0409
 8745SOL     OW26412   7.403   1.816   2.417 -0.0113  0.3402 -0.0905
 8745SOL    HW126413   7.396   1.885   2.489  1.2017  0.1192  0.2727
 8745SOL    HW226414   7.498   1.784   2.411 -0.0363  0.5316 -1.9669
 8746SOL     OW26415   0.734   6.275   6.483  0.2487  0.1371  0.2932
 8746SOL    HW126416   0.701   6.363   6.516 -0.3516  0.2897 -0.6691
 8746SOL    HW226417   0.656   6.223   6.447  0.5608 -0.8708  1.0228
 8747SOL     OW26418   6.489   2.221   3.220  0.4848  0.1160 -0.2831
 8747SOL    HW126419   6.483   2.319   3.203  1.4521 -0.1870 -2.7562
 8747SOL    HW226420   6.519   2.174   3.137 -1.1735 -2.4481  0.4579
 8748SOL     OW26421   1.712   6.560   2.692  0.1870 -0.1264 -0.1410
 8748SOL    HW126422   1.787   6.602   2.641 -0.5038  0.1829 -0.9226
 8748SOL    HW226423   1.665   6.493   2.635  0.3727 -0.9411  0.6222
 8749SOL     OW26424   2.734   2.954   7.874 -0.1664 -0.1583 -0.1501
 8749SOL    HW126425   2.781   2.866   7.862  1.6438  0.8403 -0.7747
 8749SOL    HW226426   2.677   2.950   7.956 -0.3907 -2.0088 -0.3449
 8750SOL     OW26427   1.992   0.125   1.005 -0.3576 -0.3708 -0.1252
 8750SOL    HW126428   2.082   0.152   0.970 -0.6283 -1.4290 -1.7500
 8750SOL    HW226429   1.999   0.107   1.103  1.0574  0.1505 -0.0943
 8751SOL     OW26430   0.779   2.212   5.641 -0.3197  0.2099  0.0784
 8751SOL    HW126431   0.699   2.155   5.621 -0.1158 -0.9834  2.3715
 8751SOL    HW226432   0.839   2.165   5.706  2.0041  1.3195 -1.1228
 8752SOL     OW26433   8.483   2.986   8.185 -0.2087  0.3764 -0.0687
 8752SOL    HW126434   8.465   3.084   8.175 -1.3448  0.2251  0.3510
 8752SOL    HW226435   8.464   2.958   8.279 -1.1885 -0.4911 -0.5092
 8753SOL     OW26436   4.451   6.306   5.302  0.5330  0.1258  0.3722
 8753SOL    HW126437   4.386   6.320   5.377  1.3416 -1.3457  1.3919
 8753SOL    HW226438   4.513   6.385   5.297 -0.6495  1.0680  0.0448
 8754SOL     OW26439   0.912   0.053   3.008  0.4107  0.3364  0.0954
 8754SOL    HW126440   0.961  -0.021   2.960  0.3184 -0.1642  0.7508
 8754SOL    HW226441   0.951   0.141   2.982  1.3220 -0.0221  0.1991
 8755SOL     OW26442   8.612   0.741   7.217  0.6336  0.0258  0.3927
 8755SOL    HW126443   8.546   0.675   7.179  1.5659 -0.8304  0.2066
 8755SOL    HW226444   8.686   0.691   7.262  0.1960  1.0073  2.2849
 8756SOL     OW26445   6.884   6.303   1.712 -0.0809 -0.7356 -0.0200
 8756SOL    HW126446   6.876   6.398   1.680 -0.2918 -1.4378 -2.2112
 8756SOL    HW226447   6.977   6.286   1.743 -0.0800  0.2297  0.5331
 8757SOL     OW26448   3.226   3.116   3.170 -0.2006 -0.3215 -0.1049
 8757SOL    HW126449   3.240   3.158   3.260 -1.4850  0.8245 -0.4176
 8757SOL    HW226450   3.185   3.025   3.182  1.2951 -0.9478  0.5136
 8758SOL     OW26451   7.100   4.982   4.450 -0.0147 -0.4299  0.0342
 8758SOL    HW126452   7.040   4.968   4.372 -0.5982  0.2205  0.3565
 8758SOL    HW226453   7.055   4.949   4.533 -0.0978  0.4145  0.3344
 8759SOL     OW26454   3.398   2.677   5.940  0.0244  0.1553 -0.1246
 8759SOL    HW126455   3.428   2.604   5.878  0.4008 -0.1835  0.4512
 8759SOL    HW226456   3.304   2.702   5.917  0.1006 -0.0842 -0.7262
 8760SOL     OW26457   3.963   6.686   0.424 -0.6550  0.1836 -0.5427
 8760SOL    HW126458   4.062   6.676   0.424 -0.4899  1.2682  1.6881
 8760SOL    HW226459   3.931   6.697   0.330  1.5930  2.0078 -1.1916
 8761SOL     OW26460   5.175   0.309   4.221 -0.6404 -0.0951 -0.3880
 8761SOL    HW126461   5.202   0.377   4.289 -2.0271 -1.6629  1.8897
 8761SOL    HW226462   5.253   0.284   4.165  0.6184  1.1656  0.7402
 8762SOL     OW26463   1.274   6.734   6.953 -0.6815 -0.3184  0.6775
 8762SOL    HW126464   1.293   6.675   7.032  1.7893 -0.8730 -0.2582
 8762SOL    HW226465   1.316   6.695   6.871 -0.2160  2.0017 -0.2491
 8763SOL     OW26466   3.047   5.255   2.302  0.2796  0.1159  0.0206
 8763SOL    HW126467   3.013   5.349   2.312  1.1918  0.3716  0.8786
 8763SOL    HW226468   3.003   5.197   2.370  0.7740  0.2253  0.4353
 8764SOL     OW26469   1.818   7.190   5.146 -0.4921 -0.1692 -0.3697
 8764SOL    HW126470   1.796   7.117   5.082  3.4100 -1.6292 -0.3488
 8764SOL    HW226471   1.832   7.152   5.237 -2.0070  1.2569  0.5110
 8765SOL     OW26472   6.762   3.915   2.728  0.0602  0.3962  0.4528
 8765SOL    HW126473   6.836   3.850   2.747  0.0630  0.3303  0.2227
 8765SOL    HW226474   6.719   3.943   2.814  0.3485  0.4299  0.5872
 8766SOL     OW26475   2.784   7.183   2.445  0.1319  0.1427 -0.7562
 8766SOL    HW126476   2.711   7.121   2.473  0.2200  0.9688  1.5915
 8766SOL    HW226477   2.868   7.130   2.431 -0.8694 -0.8471 -3.7411
 8767SOL     OW26478   3.362   6.922   8.031  0.1522 -0.0361  0.5007
 8767SOL    HW126479   3.278   6.968   8.059  0.2774 -0.3664  1.4477
 8767SOL    HW226480   3.352   6.823   8.041  0.7271 -0.0656  0.8676
 8768SOL     OW26481   6.674   6.615   7.291  0.4457 -0.0150  0.2560
 8768SOL    HW126482   6.678   6.603   7.192  0.1689  0.5372  0.1737
 8768SOL    HW226483   6.759   6.658   7.322  0.9791 -1.1600  0.4055
 8769SOL     OW26484   8.409   0.457   3.045  0.2116  0.5098 -0.0116
 8769SOL    HW126485   8.468   0.381   3.017  2.9851  2.7136 -0.6061
 8769SOL    HW226486   8.387   0.513   2.966 -2.3432  0.0884  0.3118
 8770SOL     OW26487   3.641   0.832   7.746 -0.3001  0.1115  0.1822
 8770SOL    HW126488   3.691   0.833   7.833  1.6206 -0.2787 -0.8505
 8770SOL    HW226489   3.547   0.802   7.762 -0.3660  1.2321  2.2736
 8771SOL     OW26490   1.746   1.067   3.605  0.2643  0.6390  0.4021
 8771SOL    HW126491   1.754   1.102   3.699  0.4869  1.6163  0.0258
 8771SOL    HW226492   1.651   1.070   3.576  0.4459  2.2301 -0.1023
 8772SOL     OW26493   0.305   0.457   3.999 -0.0220 -0.7743  0.4834
 8772SOL    HW126494   0.321   0.525   3.928  2.1596 -1.3895  0.3061
 8772SOL    HW226495   0.328   0.496   4.089  0.5484 -1.0451  0.4586
 8773SOL     OW26496   3.153   3.093   0.134  0.1820 -0.2300 -0.3856
 8773SOL    HW126497   3.098   3.164   0.178 -0.5248 -0.1836 -1.3050
 8773SOL    HW226498   3.200   3.040   0.204 -0.0138  0.5497  0.3650
 8774SOL     OW26499   5.723   6.158   8.312 -0.4618  0.4283 -0.6735
 8774SOL    HW126500   5.689   6.223   8.244 -0.4724 -0.2895 -1.3706
 8774SOL    HW226501   5.818   6.180   8.334  0.3363 -0.6949 -2.6876
 8775SOL     OW26502   8.827   3.947   7.188  0.2832 -0.3578 -0.2239
 8775SOL    HW126503   8.875   4.004   7.255  1.3216 -0.0353 -1.2043
 8775SOL    HW226504   8.787   4.006   7.117  0.2196 -0.7705 -0.5345
 8776SOL     OW26505   1.437   6.171   1.695  0.2581 -0.8128  0.5764
 8776SOL    HW126506   1.468   6.176   1.600 -1.8389 -0.5013 -0.1545
 8776SOL    HW226507   1.512   6.194   1.756  1.5663 -0.6619 -1.0195
 8777SOL     OW26508   7.185   4.352   4.410  0.6496  0.2322  0.1276
 8777SOL    HW126509   7.098   4.384   4.448  0.2572 -0.1002 -0.4807
 8777SOL    HW226510   7.253   4.425   4.418  0.0467  0.8603 -0.2823
 8778SOL     OW26511   2.403   1.665   5.235  0.2175  0.3964  0.4808
 8778SOL    HW126512   2.318   1.615   5.222  0.5963 -0.2844  0.5779
 8778SOL    HW226513   2.430   1.662   5.331  0.1303  0.9739  0.5258
 8779SOL     OW26514   4.748   4.851   4.996  0.3579 -0.0948  0.0411
 8779SOL    HW126515   4.690   4.886   4.923 -0.4844  0.5041  0.9600
 8779SOL    HW226516   4.836   4.897   4.994  0.0783  0.4380 -0.1569
 8780SOL     OW26517   8.052   0.861   8.839 -0.3178  0.1810  0.2080
 8780SOL    HW126518   8.043   0.955   8.872  1.1699  0.2773  0.4025
 8780SOL    HW226519   8.124   0.814   8.890  0.3451 -0.4452 -1.2404
 8781SOL     OW26520   4.090   1.467   0.272 -0.1361  0.4561  0.3416
 8781SOL    HW126521   4.022   1.395   0.266  0.8834 -0.6213  1.2453
 8781SOL    HW226522   4.086   1.510   0.362 -1.4575  2.3288 -0.5302
 8782SOL     OW26523   5.158   4.789   8.003  0.0520 -0.2271  0.1337
 8782SOL    HW126524   5.151   4.888   7.995  2.3048 -0.1619 -1.9403
 8782SOL    HW226525   5.077   4.747   7.962 -0.4800  0.7226  0.1698
 8783SOL     OW26526   7.795   7.254   4.623  0.0522 -0.2820  0.1260
 8783SOL    HW126527   7.851   7.184   4.666  1.0844  1.1264  1.1785
 8783SOL    HW226528   7.834   7.344   4.642 -0.2049  0.5088 -2.7079
 8784SOL     OW26529   6.314   8.713   2.100  0.0004  0.1983 -0.6070
 8784SOL    HW126530   6.404   8.729   2.061 -0.0138 -1.0980 -1.2315
 8784SOL    HW226531   6.249   8.779   2.062  0.5611  0.7648 -0.6000
 8785SOL     OW26532   4.548   3.847   0.646 -0.0979  0.0621 -0.0849
 8785SOL    HW126533   4.487   3.864   0.568  0.9365 -3.4950 -1.8728
 8785SOL    HW226534   4.640   3.879   0.624 -0.5648  2.8864  1.5204
 8786SOL     OW26535   5.397   0.337   1.460 -0.0808  0.4762 -0.3964
 8786SOL    HW126536   5.474   0.401   1.454  0.7326 -0.3509  0.6587
 8786SOL    HW226537   5.405   0.267   1.389  0.4485  0.1014  0.0192
 8787SOL     OW26538   4.375   8.098   7.355  0.0316  0.1258 -0.1122
 8787SOL    HW126539   4.474   8.114   7.362 -0.1451  0.9817  0.5085
 8787SOL    HW226540   4.327   8.156   7.420 -0.8591 -0.6420 -0.0696
 8788SOL     OW26541   0.420   3.323   0.874  0.1889 -0.6239  0.0845
 8788SOL    HW126542   0.400   3.305   0.970  0.7361 -1.2662  0.0885
 8788SOL    HW226543   0.467   3.244   0.835 -0.3749 -0.5264 -0.8180
 8789SOL     OW26544   2.114   1.429   0.807 -0.1274  0.3300  0.5520
 8789SOL    HW126545   2.067   1.377   0.735  0.0521 -0.5725  1.0683
 8789SOL    HW226546   2.085   1.525   0.803  1.7934  0.9031 -2.3500
 8790SOL     OW26547   2.828   3.849   2.276  0.4841 -0.7072  0.2544
 8790SOL    HW126548   2.756   3.782   2.291  0.4062 -0.3387  1.6506
 8790SOL    HW226549   2.904   3.831   2.338  0.3389  0.6618  0.8598
 8791SOL     OW26550   2.984   2.999   5.855 -0.3572 -0.7392 -0.2025
 8791SOL    HW126551   3.008   3.092   5.827 -1.4475  0.6190  2.9160
 8791SOL    HW226552   2.936   2.953   5.780  1.6826  0.5242 -2.4299
 8792SOL     OW26553   0.868   4.193   1.836  0.0709  0.5884  0.1327
 8792SOL    HW126554   0.795   4.197   1.904 -0.0124  0.6179  0.0428
 8792SOL    HW226555   0.925   4.113   1.853 -0.1771  0.3813  0.0093
 8793SOL     OW26556   0.215   4.663   6.735 -0.5011 -0.1094  0.1134
 8793SOL    HW126557   0.187   4.577   6.691 -0.5418  0.0515 -0.1771
 8793SOL    HW226558   0.223   4.648   6.833 -0.5421 -0.4391  0.0704
 8794SOL     OW26559   8.460   0.483   4.462 -0.2009  0.6969  0.1439
 8794SOL    HW126560   8.477   0.527   4.373 -0.0589  0.2848 -0.0338
 8794SOL    HW226561   8.532   0.417   4.481 -0.7878  0.0283  0.0805
 8795SOL     OW26562   7.989   2.433   1.167 -0.2826  0.3615  0.1873
 8795SOL    HW126563   7.980   2.423   1.068  1.4020  1.1018 -0.0627
 8795SOL    HW226564   7.961   2.347   1.211  0.9380 -0.7429 -1.0681
 8796SOL     OW26565   7.956   6.519   2.385  0.4293 -0.2145 -0.5570
 8796SOL    HW126566   7.967   6.434   2.436  3.4663 -0.1609 -0.9393
 8796SOL    HW226567   7.920   6.498   2.294 -0.5761 -0.8503 -0.0298
 8797SOL     OW26568   7.788   0.075   0.969  0.0916 -0.3144 -0.4373
 8797SOL    HW126569   7.858   0.028   0.915  0.8099 -0.5338  0.6480
 8797SOL    HW226570   7.805   0.060   1.066 -0.1535  1.5053 -0.0714
 8798SOL     OW26571   3.129   4.194   8.523 -0.0243  0.1544  0.1074
 8798SOL    HW126572   3.191   4.267   8.554 -0.6946  0.3215  1.1103
 8798SOL    HW226573   3.108   4.206   8.427 -1.4725  2.2912  0.6413
 8799SOL     OW26574   3.819   3.047   6.532  0.1572  0.3724  0.2937
 8799SOL    HW126575   3.848   3.096   6.614  0.3461  0.4080  0.2047
 8799SOL    HW226576   3.766   2.966   6.558  1.4431 -0.4301  0.4953
 8800SOL     OW26577   4.024   4.726   6.155  0.4256  0.6003  0.1837
 8800SOL    HW126578   3.933   4.698   6.125  0.5755  0.3686 -0.0661
 8800SOL    HW226579   4.060   4.658   6.219 -0.2633  1.5539  1.6281
 8801SOL     OW26580   2.784   3.970   0.421  0.8046 -0.7160  0.7930
 8801SOL    HW126581   2.728   3.889   0.434  1.9782 -1.5797  0.7058
 8801SOL    HW226582   2.854   3.951   0.351  0.2915  0.8090 -0.1967
 8802SOL     OW26583   3.705   1.755   3.582  0.0295  0.3848  0.3483
 8802SOL    HW126584   3.659   1.679   3.628 -0.8070  0.3075 -0.5811
 8802SOL    HW226585   3.802   1.753   3.605  0.1350 -1.2892 -0.0750
 8803SOL     OW26586   6.171   5.204   6.778 -0.2022 -0.0694 -0.0111
 8803SOL    HW126587   6.106   5.261   6.829 -1.2595 -2.4361  1.4246
 8803SOL    HW226588   6.124   5.164   6.699  0.2609  0.2189 -0.4393
 8804SOL     OW26589   0.569   3.394   5.916 -0.5712  0.3184 -0.6159
 8804SOL    HW126590   0.525   3.408   5.827 -1.6535 -2.5133 -0.6370
 8804SOL    HW226591   0.628   3.313   5.911 -1.2669 -0.3583  1.4302
 8805SOL     OW26592   5.950   0.886   1.779 -0.5558 -0.2744  0.0987
 8805SOL    HW126593   5.901   0.798   1.782  0.9774 -1.1517  0.1904
 8805SOL    HW226594   5.983   0.909   1.871  1.0574 -0.7983 -0.3207
 8806SOL     OW26595   7.165   7.681   4.803 -0.0049 -0.3073 -0.0376
 8806SOL    HW126596   7.254   7.724   4.787 -0.4928  0.3912 -0.9816
 8806SOL    HW226597   7.137   7.698   4.897  0.5760  0.0149  0.0819
 8807SOL     OW26598   6.567   6.955   0.872  0.0749  0.0642 -0.2407
 8807SOL    HW126599   6.482   6.932   0.919 -0.0417  0.2619 -0.3560
 8807SOL    HW226600   6.635   6.984   0.940 -0.1535  0.5369 -0.2136
 8808SOL     OW26601   4.047   0.803   8.773  0.0098  0.3493  0.2484
 8808SOL    HW126602   4.088   0.894   8.774 -0.9624  0.8199  2.0926
 8808SOL    HW226603   4.004   0.786   8.684 -0.4735  2.0102  0.1395
 8809SOL     OW26604   5.079   0.154   5.551 -0.8352  0.3051 -0.0631
 8809SOL    HW126605   5.154   0.220   5.540 -0.9195  1.2081  3.5849
 8809SOL    HW226606   5.078   0.093   5.472  3.0085  0.9400 -0.8478
 8810SOL     OW26607   8.858   2.185   7.352  0.4196  0.8083  0.3009
 8810SOL    HW126608   8.849   2.087   7.368  1.1198  0.8012  0.7212
 8810SOL    HW226609   8.955   2.208   7.345  0.2520  1.4502  0.0833
 8811SOL     OW26610   7.524   3.268   3.136  0.9865  0.0628  0.2215
 8811SOL    HW126611   7.459   3.236   3.068 -0.4440 -1.0331  1.9907
 8811SOL    HW226612   7.580   3.190   3.168  0.0563  0.0296  1.8859
 8812SOL     OW26613   2.306   3.028   4.891 -0.2603  0.4967  0.3112
 8812SOL    HW126614   2.241   2.985   4.954 -0.8545  0.2578 -0.4456
 8812SOL    HW226615   2.359   3.097   4.940  0.6037 -0.9498  1.5345
 8813SOL     OW26616   2.701   1.755   2.985  0.3771  0.2079  0.0715
 8813SOL    HW126617   2.668   1.850   2.982 -0.5946 -0.1370 -0.4732
 8813SOL    HW226618   2.669   1.711   3.069  0.7028  0.3170  0.2532
 8814SOL     OW26619   8.332   4.588   5.805 -0.3347 -0.0260 -0.0132
 8814SOL    HW126620   8.233   4.600   5.814 -0.5246 -2.5672  2.6650
 8814SOL    HW226621   8.358   4.594   5.709 -2.8486  1.9087 -0.6741
 8815SOL     OW26622   6.015   3.862   3.893 -0.4809  0.1157 -0.0183
 8815SOL    HW126623   6.054   3.798   3.827 -0.9067  0.8768 -1.0255
 8815SOL    HW226624   6.083   3.932   3.916 -0.9016  0.8875 -1.0432
 8816SOL     OW26625   0.518   3.370   3.412  0.3966 -0.4136  0.1790
 8816SOL    HW126626   0.480   3.428   3.341 -0.2093 -0.1814  0.6839
 8816SOL    HW226627   0.589   3.311   3.373 -2.0538 -2.5857 -1.3362
 8817SOL     OW26628   6.434   3.109   4.000  0.9130 -0.0124  0.2581
 8817SOL    HW126629   6.478   3.082   3.914 -1.2633 -2.3523 -0.2414
 8817SOL    HW226630   6.410   3.027   4.052 -0.6095  1.2580  1.6700
 8818SOL     OW26631   2.627   3.267   4.642  0.3612 -0.5183  0.6618
 8818SOL    HW126632   2.684   3.194   4.679  0.4388 -1.0570 -0.5036
 8818SOL    HW226633   2.673   3.311   4.565 -0.4536 -0.4479  0.2011
 8819SOL     OW26634   4.238   4.370   4.758  0.3310 -0.1941 -0.3867
 8819SOL    HW126635   4.164   4.371   4.690 -0.2301 -2.0594  0.1577
 8819SOL    HW226636   4.280   4.461   4.761 -0.2803  0.2297 -2.4938
 8820SOL     OW26637   3.613   5.102   2.686  0.0844  0.3752  0.0226
 8820SOL    HW126638   3.651   5.087   2.777 -1.0248  0.5933  0.5322
 8820SOL    HW226639   3.653   5.185   2.647 -0.9088  1.4263  1.1519
 8821SOL     OW26640   5.002   7.360   5.679  0.0383  0.3029 -0.1671
 8821SOL    HW126641   4.935   7.352   5.605 -0.4260 -0.4227  0.3153
 8821SOL    HW226642   5.091   7.331   5.646 -0.4573 -1.4227 -0.0598
 8822SOL     OW26643   1.011   4.266   2.895 -0.3075 -0.5241 -0.1763
 8822SOL    HW126644   0.972   4.330   2.962  0.2974 -1.1777  0.8355
 8822SOL    HW226645   0.944   4.246   2.825 -0.7350  0.7104 -0.1536
 8823SOL     OW26646   6.038   4.298   6.830 -0.1671 -0.0928 -0.0444
 8823SOL    HW126647   6.137   4.301   6.843  0.0130 -4.0024  0.8855
 8823SOL    HW226648   5.999   4.224   6.886 -3.4512  0.4618 -1.3291
 8824SOL     OW26649   1.218   4.289   0.988  0.1103 -0.1726 -0.0486
 8824SOL    HW126650   1.118   4.289   0.988  0.0885 -1.5247  0.1294
 8824SOL    HW226651   1.251   4.261   1.078  0.6076 -1.3728 -0.5775
 8825SOL     OW26652   2.097   3.804   3.204 -0.1794 -0.3454  0.4509
 8825SOL    HW126653   2.085   3.807   3.105 -2.3423  2.3989  0.6789
 8825SOL    HW226654   2.007   3.792   3.248  0.3558  1.2498  2.1005
 8826SOL     OW26655   3.985   6.407   6.258  0.5981  0.0376  0.1974
 8826SOL    HW126656   4.036   6.350   6.322 -2.4442 -2.3315  0.7680
 8826SOL    HW226657   3.961   6.493   6.302  0.7422 -0.4720  1.3061
 8827SOL     OW26658   3.364   8.675   7.233 -0.1943 -0.2035 -0.1096
 8827SOL    HW126659   3.420   8.748   7.194 -1.0045 -0.4181 -1.8152
 8827SOL    HW226660   3.313   8.630   7.159 -0.0718 -2.1976  0.9393
 8828SOL     OW26661   5.173   7.991   6.349  0.2767 -0.1173  0.3020
 8828SOL    HW126662   5.174   8.090   6.363 -1.0832 -0.0524  0.1273
 8828SOL    HW226663   5.227   7.968   6.269  1.8375  0.3088  1.1924
 8829SOL     OW26664   7.708   0.172   5.931 -0.1063  0.5055  0.6112
 8829SOL    HW126665   7.683   0.078   5.952  0.1213 -0.1785 -1.8257
 8829SOL    HW226666   7.800   0.191   5.964  0.2876 -0.5219  0.1348
 8830SOL     OW26667   6.711   2.998   4.590  0.1741  0.5180  0.4478
 8830SOL    HW126668   6.752   3.018   4.501  1.3917 -2.7549  0.1343
 8830SOL    HW226669   6.613   2.980   4.578  0.7854 -2.5200 -0.8179
 8831SOL     OW26670   3.505   8.587   7.497 -0.1063  0.7034  0.9477
 8831SOL    HW126671   3.549   8.510   7.451  0.6036  1.1541  0.8692
 8831SOL    HW226672   3.441   8.631   7.435 -1.4368 -0.5550  1.3656
 8832SOL     OW26673   2.811   1.967   1.936 -0.2714  0.4944 -0.6473
 8832SOL    HW126674   2.799   1.912   1.854 -1.5210  0.8060 -0.6897
 8832SOL    HW226675   2.903   2.005   1.937 -0.3398  0.7624 -2.0738
 8833SOL     OW26676   8.335   8.148   1.177  0.0799 -0.3043  0.1166
 8833SOL    HW126677   8.396   8.227   1.174 -0.7544  0.5899  3.1347
 8833SOL    HW226678   8.261   8.160   1.110  0.6571  0.8585 -0.3326
 8834SOL     OW26679   3.599   5.389   8.369 -0.4615 -0.4121  0.4158
 8834SOL    HW126680   3.558   5.407   8.280  2.6283  1.0040 -0.8752
 8834SOL    HW226681   3.566   5.455   8.436 -0.8018  0.2566 -0.4000
 8835SOL     OW26682   8.263   0.096   5.263 -0.4177  0.7196  0.0566
 8835SOL    HW126683   8.286   0.173   5.203  2.0859 -0.6225 -0.8587
 8835SOL    HW226684   8.347   0.055   5.298 -1.6609 -1.5212  0.6298
 8836SOL     OW26685   1.520   1.891   2.262 -0.1969  0.4096 -0.1113
 8836SOL    HW126686   1.422   1.887   2.284 -0.1247  2.1344  0.6873
 8836SOL    HW226687   1.570   1.825   2.318 -1.0042 -1.3037 -1.3358
 8837SOL     OW26688   0.704   0.766   3.473 -0.1568 -0.5717  0.2865
 8837SOL    HW126689   0.758   0.721   3.543 -0.0977 -1.6368 -0.4297
 8837SOL    HW226690   0.705   0.712   3.389 -0.7848  0.3369 -0.3295
 8838SOL     OW26691   6.890   8.471   5.454 -0.5178 -0.1839 -0.3769
 8838SOL    HW126692   6.808   8.482   5.398 -0.0632  0.2785 -0.9506
 8838SOL    HW226693   6.971   8.472   5.396 -0.0432  0.2664  0.2862
 8839SOL     OW26694   2.237   5.476   1.405 -0.3657  0.0993 -0.4119
 8839SOL    HW126695   2.228   5.382   1.440  0.4217  0.7954  1.8613
 8839SOL    HW226696   2.278   5.474   1.314 -0.6204 -1.7688 -0.5242
 8840SOL     OW26697   7.027   1.331   6.970  0.4507  0.2064 -0.3627
 8840SOL    HW126698   6.973   1.248   6.982  2.1531 -0.6803  1.7281
 8840SOL    HW226699   7.111   1.310   6.919  0.7414  0.7165 -0.1028
 8841SOL     OW26700   8.001   1.128   0.099  1.0041  0.2188  0.1008
 8841SOL    HW126701   7.913   1.130   0.053  1.2364 -1.2187 -0.4706
 8841SOL    HW226702   7.990   1.158   0.193  0.5734  3.5596 -0.8881
 8842SOL     OW26703   0.191   2.458   7.900 -0.0299  0.2164  0.4048
 8842SOL    HW126704   0.191   2.368   7.943 -0.6572 -0.1800 -0.3930
 8842SOL    HW226705   0.225   2.450   7.807 -1.0442  0.6159 -0.0165
 8843SOL     OW26706   0.839   2.835   7.146 -0.3339 -0.4328 -0.1607
 8843SOL    HW126707   0.925   2.885   7.158 -0.5567 -0.0419 -0.1973
 8843SOL    HW226708   0.839   2.789   7.058  0.0317 -0.8180  0.0334
 8844SOL     OW26709   2.671   6.349   8.220  0.3284 -0.4865 -0.1215
 8844SOL    HW126710   2.608   6.293   8.275 -0.2841  1.6718  1.5055
 8844SOL    HW226711   2.718   6.414   8.280  1.1479  0.6342 -1.9156
 8845SOL     OW26712   0.053   2.180   1.807  0.3225  0.1659 -0.4633
 8845SOL    HW126713   0.015   2.266   1.774  1.7518  1.2806  0.7186
 8845SOL    HW226714   0.043   2.174   1.906  1.5130 -0.3728 -0.3616
 8846SOL     OW26715   1.253   5.242   2.161  0.5804  0.2688  0.2579
 8846SOL    HW126716   1.347   5.225   2.131  0.7565  2.8216 -0.8235
 8846SOL    HW226717   1.244   5.336   2.192 -1.5809  0.0013  0.6018
 8847SOL     OW26718   4.002   4.929   1.575  0.3919 -0.1829  0.1379
 8847SOL    HW126719   4.027   4.991   1.649 -0.9773  0.4314  0.1010
 8847SOL    HW226720   3.943   4.857   1.610 -1.5717  0.9942 -0.6054
 8848SOL     OW26721   6.562   1.971   4.775  0.7261 -0.3793  0.5924
 8848SOL    HW126722   6.576   2.065   4.744  0.9189 -0.5886  0.0287
 8848SOL    HW226723   6.479   1.935   4.731 -1.1854  0.5446  3.1730
 8849SOL     OW26724   4.923   6.659   7.953 -0.2049  0.5654  0.4036
 8849SOL    HW126725   4.957   6.598   8.024  3.9368  0.6974 -1.1954
 8849SOL    HW226726   4.910   6.607   7.868 -1.4323  1.1028  0.2325
 8850SOL     OW26727   6.160   7.059   5.298  0.4358  0.1357  0.1886
 8850SOL    HW126728   6.227   7.027   5.365  0.1837  1.0607  0.9023
 8850SOL    HW226729   6.130   7.151   5.323 -2.5843 -0.9768  1.0461
 8851SOL     OW26730   1.922   8.099   8.378 -0.3397 -0.1192  0.6634
 8851SOL    HW126731   1.875   8.032   8.321 -1.8207 -0.6847  2.4608
 8851SOL    HW226732   1.957   8.173   8.320  1.0796 -2.2200 -1.3430
 8852SOL     OW26733   5.940   7.164   3.633  0.2240  0.3536 -0.7816
 8852SOL    HW126734   5.875   7.209   3.694 -0.2479  0.3876 -1.2943
 8852SOL    HW226735   5.889   7.115   3.562  0.7676  1.9956 -2.3677
 8853SOL     OW26736   5.117   3.596   7.434  0.2097 -0.4257 -0.1264
 8853SOL    HW126737   5.185   3.555   7.495 -0.1220  0.8016  1.1344
 8853SOL    HW226738   5.126   3.556   7.343  1.0315 -1.9965  0.5902
 8854SOL     OW26739   2.010   1.038   0.403  0.4910 -0.3128 -0.8418
 8854SOL    HW126740   2.045   1.007   0.492 -2.2630  1.2629  0.9388
 8854SOL    HW226741   1.919   1.001   0.388  0.2571  0.7377 -2.2579
 8855SOL     OW26742   5.928   2.007   8.766 -0.3190 -0.4816 -0.3134
 8855SOL    HW126743   6.020   2.042   8.784 -0.6807  0.8743 -0.8945
 8855SOL    HW226744   5.892   1.963   8.848  1.1125 -1.7023 -0.3016
 8856SOL     OW26745   8.684   4.686   2.763 -0.0702 -0.2122 -0.0941
 8856SOL    HW126746   8.720   4.735   2.842  0.7087 -1.4587  0.3549
 8856SOL    HW226747   8.746   4.611   2.740 -0.2427  0.1628 -1.9334
 8857SOL     OW26748   6.103   0.556   0.051  0.1271  0.0344 -0.1024
 8857SOL    HW126749   6.172   0.504   0.102 -1.0323 -0.5813  0.8603
 8857SOL    HW226750   6.022   0.570   0.108 -0.3178  1.3086 -0.9969
 8858SOL     OW26751   1.198   8.053   3.751 -0.4272  0.3069  0.1543
 8858SOL    HW126752   1.131   8.081   3.682 -0.6363  1.2033  0.6943
 8858SOL    HW226753   1.214   8.129   3.814  0.5609 -0.1386  0.4636
 8859SOL     OW26754   3.548   6.101   5.386 -0.6387 -0.5251 -0.1895
 8859SOL    HW126755   3.504   6.191   5.391  0.5562  0.0945 -0.5422
 8859SOL    HW226756   3.561   6.065   5.479  1.7842  1.1445  0.2095
 8860SOL     OW26757   5.793   5.860   0.597  0.2829  0.5905 -0.0770
 8860SOL    HW126758   5.831   5.825   0.683  0.2347  2.9866  0.9986
 8860SOL    HW226759   5.693   5.859   0.603  0.2801  0.7863 -0.1050
 8861SOL     OW26760   5.941   6.230   8.818 -0.0203  0.7451  0.3361
 8861SOL    HW126761   6.001   6.264   8.890  2.1379  0.2504 -1.1454
 8861SOL    HW226762   5.939   6.130   8.821  0.2565  0.7161 -0.4292
 8862SOL     OW26763   3.650   7.844   3.030  0.3635 -0.5767  0.2112
 8862SOL    HW126764   3.710   7.904   3.084 -0.8992 -0.5453  1.6848
 8862SOL    HW226765   3.555   7.872   3.045 -0.0782 -1.1487 -1.3837
 8863SOL     OW26766   7.388   1.821   5.412  0.2993  0.1536  0.0354
 8863SOL    HW126767   7.482   1.853   5.396  0.7851 -1.6874 -1.1708
 8863SOL    HW226768   7.368   1.746   5.348 -2.0697  0.6187  0.1620
 8864SOL     OW26769   7.368   4.576   6.897  0.1710 -0.2090  0.5906
 8864SOL    HW126770   7.341   4.536   6.810  0.8214 -0.0239  0.2996
 8864SOL    HW226771   7.383   4.674   6.886  1.7832 -0.4239  0.5188
 8865SOL     OW26772   4.221   6.862   7.126 -0.5919  0.1764 -0.2314
 8865SOL    HW126773   4.187   6.944   7.080  0.0805  0.6118  0.0322
 8865SOL    HW226774   4.244   6.793   7.057  2.3591  1.5508 -0.8011
 8866SOL     OW26775   0.461   3.192   6.046 -0.0040  0.6660 -0.3161
 8866SOL    HW126776   0.539   3.149   6.092  1.4630  2.3208 -1.1212
 8866SOL    HW226777   0.487   3.283   6.015 -2.2486  1.2064 -0.7721
 8867SOL     OW26778   4.807   0.023   7.299  0.0825 -0.3370 -0.1519
 8867SOL    HW126779   4.869   0.014   7.377 -1.0329 -0.3391  0.7534
 8867SOL    HW226780   4.759  -0.064   7.285  0.0164 -0.2266 -0.6346
 8868SOL     OW26781   3.402   3.430   8.574 -0.4788  0.4807 -0.1572
 8868SOL    HW126782   3.352   3.407   8.658 -0.0157  1.1412  0.3074
 8868SOL    HW226783   3.374   3.368   8.501 -0.2304 -0.6952  0.7180
 8869SOL     OW26784   6.275   4.373   5.911  0.0135  0.0061 -0.5685
 8869SOL    HW126785   6.201   4.342   5.969  2.1678 -4.0694  0.3437
 8869SOL    HW226786   6.349   4.409   5.968  0.2052  0.6356 -1.1990
 8870SOL     OW26787   1.190   1.489   3.676  0.0947 -0.2116 -0.2133
 8870SOL    HW126788   1.137   1.549   3.736 -0.3309 -0.3845 -0.4130
 8870SOL    HW226789   1.222   1.542   3.597 -2.0559 -0.6807 -1.4855
 8871SOL     OW26790   4.111   1.618   8.199  0.2117  0.6654 -0.1073
 8871SOL    HW126791   4.015   1.627   8.227  0.7681  1.3409  1.7576
 8871SOL    HW226792   4.156   1.707   8.208  1.3428  0.0612  0.3367
 8872SOL     OW26793   3.567   6.083   7.231 -0.2078  0.0170  0.6836
 8872SOL    HW126794   3.546   6.179   7.251 -1.2686 -0.3161  1.2831
 8872SOL    HW226795   3.519   6.055   7.148 -1.0096 -0.3455  1.2502
 8873SOL     OW26796   4.116   6.094   4.687  0.1445 -0.0101 -0.3521
 8873SOL    HW126797   4.056   6.133   4.617  1.2874  2.1505 -0.2105
 8873SOL    HW226798   4.209   6.085   4.651  0.5245  0.1363  0.5570
 8874SOL     OW26799   3.620   8.157   1.471  0.0242 -0.5883  0.5006
 8874SOL    HW126800   3.629   8.120   1.379 -1.7600 -0.2124  0.1420
 8874SOL    HW226801   3.530   8.133   1.508 -0.0590  0.9390  1.3679
 8875SOL     OW26802   4.731   4.823   6.335 -0.5264  0.4119  0.1367
 8875SOL    HW126803   4.816   4.864   6.300 -0.8868  0.6494 -0.4909
 8875SOL    HW226804   4.656   4.847   6.273 -0.5140 -2.3833 -1.0793
 8876SOL     OW26805   0.190   3.719   3.155 -0.4732 -0.4920  0.1112
 8876SOL    HW126806   0.148   3.776   3.225  0.4905 -0.8350  0.9846
 8876SOL    HW226807   0.127   3.645   3.130 -0.4846 -0.9013  1.2762
 8877SOL     OW26808   5.719   2.214   7.527 -0.5751  0.1994  0.3800
 8877SOL    HW126809   5.792   2.147   7.534  1.3474  1.8277 -2.2563
 8877SOL    HW226810   5.643   2.175   7.474 -0.2663 -0.4910  0.4397
 8878SOL     OW26811   7.681   6.612   3.611  0.7754  0.4984 -0.3589
 8878SOL    HW126812   7.704   6.672   3.688  3.0945  0.1720 -0.7067
 8878SOL    HW226813   7.759   6.608   3.549  0.4487 -2.3536 -0.6990
 8879SOL     OW26814   7.310   4.354   2.052 -0.1894 -0.3124 -0.0975
 8879SOL    HW126815   7.293   4.426   2.118 -1.2471  1.5008 -2.2181
 8879SOL    HW226816   7.235   4.288   2.054 -0.9776  0.5516 -0.4802
 8880SOL     OW26817   0.129   6.338   8.471 -0.0879 -0.4589  0.1018
 8880SOL    HW126818   0.052   6.400   8.454  0.8041  0.3801 -1.1172
 8880SOL    HW226819   0.117   6.293   8.559 -1.7222  0.0121  0.1558
 8881SOL     OW26820   3.955   1.743   3.725 -0.3211  0.1161  0.7986
 8881SOL    HW126821   4.033   1.744   3.787 -0.4676 -1.1327  1.0495
 8881SOL    HW226822   3.964   1.666   3.661 -0.9025  0.4917  0.2539
 8882SOL     OW26823   6.387   0.903   4.758  0.4862 -0.4179  0.2317
 8882SOL    HW126824   6.357   0.960   4.834  1.8751  0.9968 -0.2152
 8882SOL    HW226825   6.443   0.958   4.695 -0.8719 -1.4603 -2.0001
 8883SOL     OW26826   1.270   4.405   3.196  0.5583  0.2494  0.0397
 8883SOL    HW126827   1.237   4.310   3.192 -2.5073  1.2475 -1.2999
 8883SOL    HW226828   1.328   4.423   3.117  0.4036 -0.2671 -0.1984
 8884SOL     OW26829   6.674   2.103   3.717 -0.3164  0.4339 -0.5230
 8884SOL    HW126830   6.739   2.160   3.767 -1.1991  0.8352  0.1761
 8884SOL    HW226831   6.679   2.008   3.750 -2.0145  0.9890  1.5050
 8885SOL     OW26832   2.132   1.147   3.592 -0.1001 -0.3999 -0.7031
 8885SOL    HW126833   2.135   1.203   3.510 -2.2540 -0.1914 -0.7110
 8885SOL    HW226834   2.220   1.151   3.639  0.7549  0.5025 -2.3198
 8886SOL     OW26835   8.214   0.563   7.717 -0.7215 -0.6236 -0.2085
 8886SOL    HW126836   8.256   0.613   7.641 -0.7997 -0.3669 -0.0860
 8886SOL    HW226837   8.115   0.569   7.710 -0.7287 -0.5861 -0.0773
 8887SOL     OW26838   1.255   2.660   2.499  0.3411 -0.0407 -0.2133
 8887SOL    HW126839   1.270   2.749   2.457 -0.9095 -0.4019 -1.5270
 8887SOL    HW226840   1.201   2.603   2.437  0.5062 -1.4709  0.8989
 8888SOL     OW26841   6.927   8.758   4.799 -0.4592 -0.4487 -0.1690
 8888SOL    HW126842   6.882   8.847   4.805 -2.8374 -1.4378 -1.6267
 8888SOL    HW226843   6.996   8.760   4.727 -0.8499  0.1119 -0.5372
 8889SOL     OW26844   0.730   5.277   6.803 -0.3755  0.0999 -0.1767
 8889SOL    HW126845   0.646   5.324   6.775  0.0195  0.6280 -0.4703
 8889SOL    HW226846   0.800   5.289   6.733  0.0229 -0.1505  0.1760
 8890SOL     OW26847   5.679   3.342   8.161  0.6444  0.0329 -0.1287
 8890SOL    HW126848   5.627   3.308   8.239  1.5770  0.0503  0.5069
 8890SOL    HW226849   5.687   3.441   8.166  1.2018 -0.0177  0.0753
 8891SOL     OW26850   7.034   5.487   7.529 -0.2160  0.0503  0.2220
 8891SOL    HW126851   7.090   5.536   7.596  2.2512 -0.3595 -1.4073
 8891SOL    HW226852   7.077   5.400   7.507 -1.5571 -0.3271 -1.0831
 8892SOL     OW26853   8.270   4.750   3.933  0.8018  0.1287 -0.4763
 8892SOL    HW126854   8.320   4.745   3.847 -1.4803  0.2768 -1.9015
 8892SOL    HW226855   8.290   4.669   3.988  1.9192 -0.2259 -1.3739
 8893SOL     OW26856   6.572   7.335   2.516 -0.4657 -0.0042  0.4298
 8893SOL    HW126857   6.643   7.267   2.500 -0.0110  0.3973  0.7094
 8893SOL    HW226858   6.603   7.425   2.483 -1.1852  0.0178 -0.2417
 8894SOL     OW26859   7.315   4.441   1.590 -0.4582 -0.3963  0.3027
 8894SOL    HW126860   7.313   4.519   1.528 -0.7014 -0.6740 -0.0494
 8894SOL    HW226861   7.223   4.425   1.626 -0.5434 -0.9130 -0.1332
 8895SOL     OW26862   8.809   8.456   1.349 -0.1355 -0.3287 -0.0199
 8895SOL    HW126863   8.818   8.365   1.308 -0.4557 -1.3970  2.1499
 8895SOL    HW226864   8.795   8.523   1.276 -0.3429 -2.0473 -1.6632
 8896SOL     OW26865   3.526   5.383   4.078 -1.0825 -0.1334 -0.0381
 8896SOL    HW126866   3.522   5.482   4.064 -1.4407 -0.3103 -1.2329
 8896SOL    HW226867   3.554   5.365   4.173 -1.9677  1.1065  0.4951
 8897SOL     OW26868   5.415   4.249   5.472  0.0056  0.1038  0.3107
 8897SOL    HW126869   5.366   4.177   5.521  2.2366 -1.5166  0.3316
 8897SOL    HW226870   5.514   4.236   5.483  0.5418  1.5362 -2.0066
 8898SOL     OW26871   5.251   5.193   3.539 -0.0190 -0.1822  0.9665
 8898SOL    HW126872   5.269   5.280   3.584 -1.4152  0.2813  0.7101
 8898SOL    HW226873   5.260   5.205   3.440  2.7440 -1.1180  1.0476
 8899SOL     OW26874   5.585   1.711   8.471 -0.4605  0.0168  0.5043
 8899SOL    HW126875   5.673   1.727   8.516 -0.5029  2.1242 -0.0624
 8899SOL    HW226876   5.511   1.736   8.533 -0.5822  0.3491  0.2313
 8900SOL     OW26877   6.550   4.714   5.141  0.6626  0.2355  0.1739
 8900SOL    HW126878   6.628   4.706   5.078  0.3393  1.2626 -0.3767
 8900SOL    HW226879   6.468   4.740   5.090 -0.0519 -0.7829  0.7565
 8901SOL     OW26880   8.774   5.635   8.183 -0.5483  0.2337  0.0197
 8901SOL    HW126881   8.873   5.621   8.183 -0.3375  1.2554  2.5429
 8901SOL    HW226882   8.753   5.730   8.206 -2.1431  0.2158 -1.1628
 8902SOL     OW26883   6.136   8.599   7.805  0.0004 -0.1410 -0.2302
 8902SOL    HW126884   6.221   8.619   7.758 -0.1539 -0.7209 -0.7691
 8902SOL    HW226885   6.092   8.684   7.833  0.3314  0.1883 -0.7020
 8903SOL     OW26886   3.375   4.277   8.039 -0.0391 -0.6053  0.3211
 8903SOL    HW126887   3.437   4.321   7.974 -1.7348 -0.2238 -1.1068
 8903SOL    HW226888   3.405   4.182   8.055  2.0594  0.1524  1.3068
 8904SOL     OW26889   0.899   8.433   2.188  0.1109  0.0375  0.6680
 8904SOL    HW126890   0.950   8.462   2.269  0.1256 -0.5828  0.8878
 8904SOL    HW226891   0.938   8.477   2.107  1.3566 -0.8216  0.7599
 8905SOL     OW26892   3.139   6.649   3.971 -0.9451  0.0727  0.2800
 8905SOL    HW126893   3.217   6.643   3.908 -1.8051 -1.3740 -0.7052
 8905SOL    HW226894   3.156   6.590   4.050 -2.0574 -2.3684 -1.1713
 8906SOL     OW26895   2.858   5.359   4.881  0.2466 -0.0023  0.2948
 8906SOL    HW126896   2.948   5.390   4.913  0.2514  1.4073 -0.9447
 8906SOL    HW226897   2.854   5.260   4.884  2.4353 -0.1949 -0.9937
 8907SOL     OW26898   3.776   4.048   6.341  0.2025 -0.0716  0.2440
 8907SOL    HW126899   3.825   4.044   6.428  0.0818  0.7501  0.3583
 8907SOL    HW226900   3.689   3.998   6.349  0.3219 -0.2378  0.5081
 8908SOL     OW26901   7.078   1.571   2.221  0.3224 -0.1952  0.3331
 8908SOL    HW126902   7.081   1.492   2.160  0.6686  0.0359  0.0494
 8908SOL    HW226903   7.024   1.644   2.178  2.1215  0.6763 -0.5595
 8909SOL     OW26904   5.920   5.083   0.517 -0.3551  0.0052  0.1123
 8909SOL    HW126905   5.837   5.050   0.472 -1.1282 -1.9934  2.7416
 8909SOL    HW226906   5.992   5.098   0.449 -2.0985 -0.5949 -1.9630
 8910SOL     OW26907   7.801   0.391   2.452 -0.2546  1.4318  0.0421
 8910SOL    HW126908   7.746   0.328   2.398  3.3847 -1.5847 -0.5372
 8910SOL    HW226909   7.843   0.460   2.392 -1.8157  2.5993  0.2281
 8911SOL     OW26910   1.548   1.455   6.196 -0.2432  0.0531  0.1954
 8911SOL    HW126911   1.472   1.449   6.131 -0.0830 -1.8006  0.1428
 8911SOL    HW226912   1.634   1.467   6.147 -0.2208 -0.4760  0.0981
 8912SOL     OW26913   2.720   0.846   3.953  0.6318  0.2089 -0.2604
 8912SOL    HW126914   2.752   0.783   3.882 -0.5716  0.9572 -1.5029
 8912SOL    HW226915   2.710   0.938   3.915 -0.4182  0.5537  0.7740
 8913SOL     OW26916   2.945   6.894   7.066 -0.2330 -0.0235 -0.0686
 8913SOL    HW126917   2.847   6.909   7.073 -0.1432  0.6323 -0.1846
 8913SOL    HW226918   2.994   6.972   7.105  0.2430  0.6243 -1.8418
 8914SOL     OW26919   1.776   8.692   8.651 -0.1728  0.1203  1.2658
 8914SOL    HW126920   1.715   8.622   8.688 -2.3454  1.6751  0.8430
 8914SOL    HW226921   1.839   8.650   8.586  1.0800 -1.9893  3.6402
 8915SOL     OW26922   1.804   0.752   7.782 -0.6707  0.0932 -0.3311
 8915SOL    HW126923   1.799   0.691   7.702 -3.2834 -0.9331  0.5133
 8915SOL    HW226924   1.713   0.788   7.802  0.3462  2.1730  0.8637
 8916SOL     OW26925   2.568   4.889   8.429  0.1451 -0.0116 -0.0027
 8916SOL    HW126926   2.613   4.931   8.351 -1.4322 -1.2536 -1.6749
 8916SOL    HW226927   2.636   4.841   8.485  1.6245  2.7194  0.6914
 8917SOL     OW26928   6.545   0.168   1.679 -0.3513 -0.4583  0.7079
 8917SOL    HW126929   6.563   0.241   1.744 -1.0803 -0.3360  0.7851
 8917SOL    HW226930   6.482   0.101   1.721 -4.2459  1.6901 -1.1557
 8918SOL     OW26931   2.594   2.367   5.555  0.2789 -0.0823 -0.0749
 8918SOL    HW126932   2.613   2.465   5.548 -1.3755  0.2158 -0.9720
 8918SOL    HW226933   2.656   2.316   5.494  0.2475  0.5337 -0.6280
 8919SOL     OW26934   6.131   3.736   3.222 -0.1386 -0.3251  0.0644
 8919SOL    HW126935   6.111   3.653   3.274 -1.1380  0.4966  1.0456
 8919SOL    HW226936   6.097   3.727   3.129 -1.5835 -0.4766  0.5817
 8920SOL     OW26937   8.733   2.935   2.773 -0.0248 -0.9241  0.2799
 8920SOL    HW126938   8.708   2.856   2.829  1.6862 -1.7030  0.0105
 8920SOL    HW226939   8.820   2.917   2.727  0.1831  0.9524 -0.1402
 8921SOL     OW26940   8.610   4.480   6.542 -0.0654  0.1339  0.5072
 8921SOL    HW126941   8.548   4.511   6.470  0.7746 -0.2985 -0.4288
 8921SOL    HW226942   8.579   4.392   6.578 -0.1290  0.0369  0.2141
 8922SOL     OW26943   7.046   4.625   2.714 -0.1558 -0.1283 -0.5499
 8922SOL    HW126944   6.988   4.702   2.738  2.6534  1.3600  2.0900
 8922SOL    HW226945   7.031   4.550   2.778 -0.1727 -0.2808 -0.7316
 8923SOL     OW26946   4.382   8.657   7.088 -0.0238  0.3989 -0.1433
 8923SOL    HW126947   4.290   8.641   7.053 -0.4283  0.5583  0.8146
 8923SOL    HW226948   4.449   8.627   7.020 -0.7778 -0.0837 -0.6922
 8924SOL     OW26949   2.120   6.375   7.395  0.1572 -0.5422 -0.4482
 8924SOL    HW126950   2.045   6.441   7.389 -1.0572 -1.9796 -2.0877
 8924SOL    HW226951   2.115   6.326   7.482  0.1433  0.4329  0.1108
 8925SOL     OW26952   5.367   4.517   6.742  0.1881 -0.1424 -0.4156
 8925SOL    HW126953   5.313   4.520   6.826 -0.1137 -0.5227 -0.5935
 8925SOL    HW226954   5.387   4.422   6.719 -1.1295 -0.1561 -1.6559
 8926SOL     OW26955   3.497   6.831   3.952  0.1112 -0.3493  0.1796
 8926SOL    HW126956   3.589   6.871   3.949 -1.1204  2.7681  0.0869
 8926SOL    HW226957   3.465   6.813   3.859  0.4667 -1.1134  0.1969
 8927SOL     OW26958   7.379   2.823   6.643  0.7065  0.1502 -0.4535
 8927SOL    HW126959   7.417   2.830   6.551 -1.0779 -0.3155 -1.2896
 8927SOL    HW226960   7.281   2.846   6.640  0.8336  1.2038  1.5394
 8928SOL     OW26961   7.753   8.568   1.174 -0.3306  0.1719  0.0715
 8928SOL    HW126962   7.780   8.507   1.100  1.0029 -0.3426  0.9361
 8928SOL    HW226963   7.677   8.625   1.144  0.1167 -0.0719 -1.6554
 8929SOL     OW26964   2.869   4.913   2.194  0.1960 -0.3519  0.1712
 8929SOL    HW126965   2.862   4.961   2.281  1.0253  1.1393 -0.5259
 8929SOL    HW226966   2.935   4.838   2.202  0.3807 -0.1276  0.7888
 8930SOL     OW26967   7.803   4.841   8.094  0.1027  0.7836 -0.1784
 8930SOL    HW126968   7.782   4.856   7.997  0.1232 -0.5713 -0.4174
 8930SOL    HW226969   7.751   4.762   8.127  1.6207 -0.0246  0.3699
 8931SOL     OW26970   2.491   5.260   2.460  0.1005  0.2836 -0.0762
 8931SOL    HW126971   2.573   5.248   2.517  0.0568 -1.0062 -0.2622
 8931SOL    HW226972   2.409   5.254   2.518  0.1106  1.5756  0.1103
 8932SOL     OW26973   2.417   0.739   1.942  0.4065 -0.0073  0.2384
 8932SOL    HW126974   2.448   0.728   1.847 -1.6849  1.7829 -0.7443
 8932SOL    HW226975   2.360   0.662   1.968  0.4667 -0.1970 -0.1914
 8933SOL     OW26976   4.470   0.774   5.925 -0.1454  0.1378 -0.1393
 8933SOL    HW126977   4.507   0.816   6.008 -1.1544  0.9862 -0.1001
 8933SOL    HW226978   4.509   0.818   5.845 -0.2658  0.3181 -0.1008
 8934SOL     OW26979   5.096   2.365   6.431 -0.2308  0.0145  0.6311
 8934SOL    HW126980   5.137   2.368   6.340 -0.8291 -0.4029  0.3453
 8934SOL    HW226981   5.019   2.301   6.432 -0.6615  0.5248  1.2534
 8935SOL     OW26982   6.253   3.895   1.584 -0.4690 -0.5191 -0.0359
 8935SOL    HW126983   6.224   3.867   1.676 -0.0495 -0.6587  0.0539
 8935SOL    HW226984   6.345   3.935   1.588  0.9155 -3.3867 -0.8266
 8936SOL     OW26985   2.192   3.163   6.031  0.1009  0.4188  0.3216
 8936SOL    HW126986   2.226   3.102   6.102  1.3236  1.9649  1.1443
 8936SOL    HW226987   2.213   3.258   6.056 -1.4290  1.1748 -1.0513
 8937SOL     OW26988   2.524   6.286   3.431 -0.6867 -0.1087 -0.0333
 8937SOL    HW126989   2.508   6.216   3.361  0.9257  0.6983 -1.2758
 8937SOL    HW226990   2.564   6.244   3.512  0.0803 -0.6638 -0.6866
 8938SOL     OW26991   1.099   4.410   0.509 -0.0181 -0.0723 -0.1263
 8938SOL    HW126992   1.159   4.386   0.584 -0.5835  0.1102  0.3926
 8938SOL    HW226993   1.153   4.424   0.426  0.6089 -0.2580  0.2454
 8939SOL     OW26994   3.073   1.818   6.911  0.3985 -0.0428 -0.2373
 8939SOL    HW126995   3.002   1.762   6.869  0.0951  0.2360 -0.0904
 8939SOL    HW226996   3.071   1.910   6.873 -0.2755  0.3954  0.8096
 8940SOL     OW26997   6.219   3.580   1.550  0.3632  0.8373 -1.0453
 8940SOL    HW126998   6.249   3.674   1.566  0.9972  0.4278  0.3363
 8940SOL    HW226999   6.126   3.567   1.587  0.9957  0.4643  0.5224
 8941SOL     OW27000   1.490   5.680   2.436 -0.0727  0.3866  0.1866
 8941SOL    HW127001   1.470   5.586   2.409  0.7338  0.4094 -0.5536
 8941SOL    HW227002   1.497   5.686   2.535  0.8318 -0.5553  0.2004
 8942SOL     OW27003   7.851   7.298   5.843 -0.0412  0.7466  0.1562
 8942SOL    HW127004   7.881   7.298   5.939  2.0024 -0.1676 -0.4132
 8942SOL    HW227005   7.849   7.391   5.808 -1.6911  1.1823  1.3058
 8943SOL     OW27006   4.576   4.138   0.423 -0.6245 -0.0240 -0.2608
 8943SOL    HW127007   4.638   4.075   0.470  0.0309 -0.1065 -1.2153
 8943SOL    HW227008   4.553   4.214   0.485  1.5728  0.7720 -0.3327
 8944SOL     OW27009   4.879   8.147   8.322 -0.0911 -0.9811  0.3906
 8944SOL    HW127010   4.822   8.228   8.307  2.2181  0.6838  0.1794
 8944SOL    HW227011   4.883   8.126   8.419  0.9120  0.4512  0.6876
 8945SOL     OW27012   8.709   2.171   4.151  0.1268 -0.1337 -0.2541
 8945SOL    HW127013   8.611   2.168   4.130  0.2556 -1.0618 -0.7802
 8945SOL    HW227014   8.723   2.147   4.247 -0.1869  0.3079 -0.0977
 8946SOL     OW27015   4.651   2.583   2.250  0.3141 -0.1228 -0.5690
 8946SOL    HW127016   4.660   2.586   2.151 -0.3005  0.3036 -0.6189
 8946SOL    HW227017   4.684   2.669   2.289 -4.1913  2.0339 -0.8516
 8947SOL     OW27018   0.423   0.801   2.273  0.3730  0.4262 -0.3512
 8947SOL    HW127019   0.412   0.895   2.240 -0.4516  1.1729  1.8999
 8947SOL    HW227020   0.336   0.767   2.307  0.8970 -0.7887 -0.1752
 8948SOL     OW27021   8.812   1.866   4.600  0.0002  0.9773 -0.1569
 8948SOL    HW127022   8.850   1.890   4.689  1.4495 -2.6093  0.3625
 8948SOL    HW227023   8.713   1.851   4.609  0.1576  0.5129  0.9005
 8949SOL     OW27024   2.349   0.471   8.589 -0.3034  0.2320 -0.1752
 8949SOL    HW127025   2.264   0.510   8.625  0.1260  0.9742  0.0483
 8949SOL    HW227026   2.360   0.497   8.493 -0.2265  0.2967 -0.1481
 8950SOL     OW27027   4.032   3.514   0.614 -0.4622 -0.2566 -0.1952
 8950SOL    HW127028   3.977   3.540   0.693 -1.2079 -1.4339 -0.3031
 8950SOL    HW227029   4.127   3.539   0.630 -0.8125  0.6922  0.5123
 8951SOL     OW27030   7.928   5.376   1.620 -0.1888  0.3849  0.6268
 8951SOL    HW127031   7.934   5.278   1.602 -1.4021 -0.1187  2.6014
 8951SOL    HW227032   8.000   5.403   1.683 -1.1422  0.2702  1.8065
 8952SOL     OW27033   6.017   0.419   1.831  0.3023  0.1929 -0.0937
 8952SOL    HW127034   6.048   0.461   1.916 -0.8261  0.2999  0.2743
 8952SOL    HW227035   5.969   0.487   1.775 -0.2342 -0.2297 -0.1575
 8953SOL     OW27036   7.135   3.504   1.248 -0.6594  0.8663  0.2397
 8953SOL    HW127037   7.062   3.442   1.277 -0.8432  0.7096 -0.5277
 8953SOL    HW227038   7.191   3.529   1.327  0.7055 -1.8998  0.2663
 8954SOL     OW27039   8.059   1.664   4.926 -0.0965 -0.7580  0.1400
 8954SOL    HW127040   7.986   1.603   4.895 -0.9211  0.4203 -0.3402
 8954SOL    HW227041   8.141   1.649   4.871 -1.1873  0.5313 -1.9869
 8955SOL     OW27042   0.402   8.797   4.372  0.2574 -0.9281 -0.4600
 8955SOL    HW127043   0.459   8.870   4.412  0.5012 -0.4621 -1.6271
 8955SOL    HW227044   0.458   8.715   4.361  0.7564 -0.4493 -1.6703
 8956SOL     OW27045   7.390   5.675   8.861  0.2005 -0.6710  0.0734
 8956SOL    HW127046   7.388   5.765   8.815  0.1633 -1.0510 -0.6869
 8956SOL    HW227047   7.474   5.667   8.915  0.9148 -0.7364 -1.0186
 8957SOL     OW27048   1.259   1.333   6.293 -1.1574  0.2402  0.2424
 8957SOL    HW127049   1.328   1.389   6.246 -1.1042 -0.4802 -0.5449
 8957SOL    HW227050   1.219   1.387   6.368 -0.0348  0.8156  0.4650
 8958SOL     OW27051   5.702   2.106   6.235  0.0371  0.3293  0.6563
 8958SOL    HW127052   5.681   2.162   6.315  0.7977  1.7622 -0.1171
 8958SOL    HW227053   5.618   2.089   6.183  0.1142  2.8760 -0.4245
 8959SOL     OW27054   0.631   2.139   1.853 -0.9979  0.6153  0.1629
 8959SOL    HW127055   0.660   2.171   1.943  0.4575  1.0639 -0.4388
 8959SOL    HW227056   0.706   2.089   1.810 -1.4099  1.0583 -1.1067
 8960SOL     OW27057   6.131   8.637   2.915 -0.6252 -0.1072 -0.0445
 8960SOL    HW127058   6.148   8.735   2.903  0.4387 -0.1895  0.6867
 8960SOL    HW227059   6.035   8.617   2.893 -1.3115  1.3885  1.4195
 8961SOL     OW27060   4.322   0.920   5.104 -0.4814 -0.0430  0.4777
 8961SOL    HW127061   4.406   0.909   5.156 -0.8799  0.6214  1.2861
 8961SOL    HW227062   4.244   0.893   5.160 -0.7774 -1.1373 -0.4374
 8962SOL     OW27063   8.807   1.399   2.158 -0.2202  0.2471 -0.5185
 8962SOL    HW127064   8.815   1.333   2.233 -0.7073  0.6866 -0.0722
 8962SOL    HW227065   8.847   1.360   2.075 -0.2339 -0.4944 -0.1851
 8963SOL     OW27066   8.718   8.207   5.567  0.1371 -0.0783  0.5934
 8963SOL    HW127067   8.716   8.251   5.478  4.1475 -0.0233  0.3291
 8963SOL    HW227068   8.754   8.114   5.558 -0.5156 -0.5029  2.0181
 8964SOL     OW27069   1.409   8.091   6.827 -0.2600  0.2275  0.0673
 8964SOL    HW127070   1.404   8.165   6.760  0.3334  0.0390 -0.1883
 8964SOL    HW227071   1.404   8.129   6.919  2.3819  0.8504  0.0173
 8965SOL     OW27072   4.779   4.798   2.375 -0.6686 -0.1198 -0.2738
 8965SOL    HW127073   4.827   4.797   2.463  0.2356  0.1598 -0.7414
 8965SOL    HW227074   4.759   4.892   2.349 -1.4179 -0.2313 -0.1236
 8966SOL     OW27075   6.764   7.405   0.006  0.4061 -0.2431  0.3079
 8966SOL    HW127076   6.760   7.329   0.070 -0.1225 -0.6130 -0.1485
 8966SOL    HW227077   6.740   7.490   0.054  0.7399 -0.3998  0.7580
 8967SOL     OW27078   6.323   7.324   2.364  0.0207 -0.9130 -0.1236
 8967SOL    HW127079   6.233   7.368   2.367 -0.5282 -1.4420 -3.9562
 8967SOL    HW227080   6.393   7.388   2.395 -1.4016  0.4535  0.3879
 8968SOL     OW27081   3.810   0.028   1.529 -0.0452  0.1515  0.2725
 8968SOL    HW127082   3.808  -0.035   1.607  0.5397 -0.2053  0.0117
 8968SOL    HW227083   3.731   0.011   1.471 -1.6184  1.7707  1.7890
 8969SOL     OW27084   2.920   6.812   6.684  0.0088 -0.0950 -0.3798
 8969SOL    HW127085   2.822   6.802   6.700 -0.3973  2.2796 -1.0477
 8969SOL    HW227086   2.935   6.846   6.591  1.5569 -1.4221 -0.6610
 8970SOL     OW27087   3.652   7.158   0.158  0.2514  0.1135  0.6727
 8970SOL    HW127088   3.734   7.104   0.138 -0.4782 -1.2897  1.3438
 8970SOL    HW227089   3.595   7.109   0.224 -0.5286  1.6449  1.1777
 8971SOL     OW27090   1.699   6.431   1.954 -0.2699  0.0916  0.4644
 8971SOL    HW127091   1.792   6.411   1.985  0.2601 -0.9242 -1.6451
 8971SOL    HW227092   1.653   6.346   1.930 -0.7859  0.7701 -1.0694
 8972SOL     OW27093   2.893   4.521   4.174 -0.0803 -0.0282  0.3117
 8972SOL    HW127094   2.924   4.561   4.088 -1.9245  1.6157  0.3362
 8972SOL    HW227095   2.944   4.563   4.250  0.0351  0.1377  0.1434
 8973SOL     OW27096   1.907   1.690   3.483 -0.3075 -0.3806 -0.2346
 8973SOL    HW127097   1.898   1.735   3.395  0.9845 -0.5374 -0.4542
 8973SOL    HW227098   1.847   1.610   3.486 -2.2711  1.0020 -0.0125
 8974SOL     OW27099   6.510   1.054   1.190  0.2566  0.1572  0.6083
 8974SOL    HW127100   6.567   0.972   1.180 -1.5527 -1.3853  2.0957
 8974SOL    HW227101   6.553   1.116   1.256  1.2904  0.0775  0.0280
 8975SOL     OW27102   5.170   1.572   7.864  0.0186  0.7285 -0.2755
 8975SOL    HW127103   5.218   1.507   7.924 -2.6340  1.3698  2.8494
 8975SOL    HW227104   5.198   1.665   7.887 -1.4524  1.0147  0.4397
 8976SOL     OW27105   6.183   0.947   7.184 -0.3571 -0.2311  0.2285
 8976SOL    HW127106   6.282   0.940   7.186 -0.2948  0.5951  2.3324
 8976SOL    HW227107   6.147   0.886   7.113  1.5585 -1.6674  0.3961
 8977SOL     OW27108   6.036   8.190   4.175  0.0563  0.0180 -0.5514
 8977SOL    HW127109   6.134   8.192   4.194  0.1586 -0.8396 -0.9519
 8977SOL    HW227110   6.021   8.174   4.077 -0.4710 -1.8876 -0.2008
 8978SOL     OW27111   1.943   2.682   4.498 -0.3518 -0.0898  0.8345
 8978SOL    HW127112   1.845   2.676   4.480 -0.0540 -0.8345 -0.6506
 8978SOL    HW227113   1.987   2.596   4.475  0.6603  0.2098  1.5453
 8979SOL     OW27114   1.341   3.964   8.562 -0.1259  0.7197 -0.4143
 8979SOL    HW127115   1.404   4.040   8.581 -0.3876  1.0072 -0.6740
 8979SOL    HW227116   1.369   3.918   8.477 -0.6927  1.3243 -0.9448
 8980SOL     OW27117   1.165   6.518   4.076  0.3740  0.2386 -0.3860
 8980SOL    HW127118   1.126   6.496   4.165  0.7071 -0.5848 -0.4368
 8980SOL    HW227119   1.254   6.563   4.089  1.5624 -1.9887 -0.2784
 8981SOL     OW27120   3.658   0.897   0.119 -0.2015  0.2771  0.2954
 8981SOL    HW127121   3.589   0.967   0.138 -0.6199  0.3005 -1.2316
 8981SOL    HW227122   3.615   0.818   0.077  0.7920  0.6693 -1.5675
 8982SOL     OW27123   4.455   5.348   7.674  0.2467 -0.0025  0.3671
 8982SOL    HW127124   4.522   5.390   7.612  0.4980  2.5139  2.2058
 8982SOL    HW227125   4.498   5.270   7.720  1.1586  0.1581 -0.1685
 8983SOL     OW27126   3.531   1.366   4.831 -0.0653 -0.1721 -0.7107
 8983SOL    HW127127   3.465   1.432   4.866  1.1450  1.1331 -0.8408
 8983SOL    HW227128   3.545   1.381   4.733  0.3313 -0.5268 -0.7116
 8984SOL     OW27129   0.590   7.475   3.495  0.0664 -0.1334 -0.6267
 8984SOL    HW127130   0.661   7.497   3.562  0.7046 -0.4973 -1.1638
 8984SOL    HW227131   0.568   7.378   3.502  0.5763 -0.3060 -1.3472
 8985SOL     OW27132   6.966   1.675   8.074  0.1260 -0.2080  0.1649
 8985SOL    HW127133   7.016   1.719   7.999  0.1492 -0.5286 -0.0084
 8985SOL    HW227134   6.916   1.595   8.039 -2.0479  1.1592 -0.0726
 8986SOL     OW27135   2.499   4.496   2.091  0.6639 -0.0936  0.3454
 8986SOL    HW127136   2.467   4.402   2.077  2.9534 -1.0293  0.8787
 8986SOL    HW227137   2.426   4.560   2.068 -0.6940 -1.9699 -0.8804
 8987SOL     OW27138   2.310   5.289   0.714  0.2520  0.2085 -0.0171
 8987SOL    HW127139   2.334   5.257   0.806  0.3475 -0.0975 -0.1477
 8987SOL    HW227140   2.267   5.214   0.663  0.2440  0.3636 -0.2400
 8988SOL     OW27141   7.891   7.183   7.710 -0.1198 -0.2853  0.4400
 8988SOL    HW127142   7.950   7.133   7.772 -0.2114 -0.9096  0.0304
 8988SOL    HW227143   7.797   7.152   7.719  0.1082 -1.6112 -1.1865
 8989SOL     OW27144   4.167   7.969   6.011 -0.3876  0.1242  0.3763
 8989SOL    HW127145   4.078   7.966   5.965 -0.4690  0.5308  0.5015
 8989SOL    HW227146   4.162   7.915   6.095 -0.5049  0.1090  0.3607
 8990SOL     OW27147   2.303   7.909   4.886  0.5304  0.2958  0.4194
 8990SOL    HW127148   2.285   7.868   4.975 -1.6079  1.8844  0.8089
 8990SOL    HW227149   2.242   7.988   4.873  1.7513  0.9470 -1.8792
 8991SOL     OW27150   2.166   4.479   7.818 -0.3433  0.4164  0.3817
 8991SOL    HW127151   2.078   4.449   7.855  0.3086 -2.1436  0.0345
 8991SOL    HW227152   2.239   4.454   7.881  0.4071 -0.3613 -0.7528
 8992SOL     OW27153   5.004   5.375   1.430 -0.2154 -0.5811 -0.1324
 8992SOL    HW127154   5.045   5.297   1.381  2.7470  0.2333  0.8634
 8992SOL    HW227155   4.959   5.342   1.513 -1.3999 -1.4739 -1.0875
 8993SOL     OW27156   4.399   0.413   5.219  0.5319  0.2185  0.0601
 8993SOL    HW127157   4.420   0.473   5.143  2.1577  1.8760  1.7000
 8993SOL    HW227158   4.408   0.317   5.190  2.4260  0.8083 -1.5131
 8994SOL     OW27159   4.443   3.714   0.931  0.0318  0.0660 -0.3139
 8994SOL    HW127160   4.473   3.794   0.878  1.2191  0.1258  0.4002
 8994SOL    HW227161   4.370   3.741   0.993  0.6840  0.7232  0.1983
 8995SOL     OW27162   2.584   3.836   3.393  0.2013 -0.0582 -0.2861
 8995SOL    HW127163   2.494   3.794   3.379  0.5991 -1.4474  1.0836
 8995SOL    HW227164   2.576   3.909   3.460 -0.1217  0.7367 -1.1634
 8996SOL     OW27165   7.942   4.466   0.233 -0.1439  0.4193  0.4891
 8996SOL    HW127166   7.985   4.555   0.252  0.1060  0.5966 -0.8547
 8996SOL    HW227167   7.967   4.402   0.305  1.6166  0.7874  0.2585
 8997SOL     OW27168   4.887   0.029   3.189  0.7741 -0.1594  0.5133
 8997SOL    HW127169   4.947  -0.040   3.229  1.0454 -0.7328 -0.8166
 8997SOL    HW227170   4.851  -0.005   3.102 -0.4803  0.6884  0.6666
 8998SOL     OW27171   5.054   1.165   5.358 -0.0649  0.5673  0.2474
 8998SOL    HW127172   5.120   1.197   5.290  1.9760  0.4238  2.0638
 8998SOL    HW227173   5.088   1.185   5.450 -1.4932 -1.6014  1.3296
 8999SOL     OW27174   4.733   8.373   8.341  1.0876  0.0383 -0.1762
 8999SOL    HW127175   4.636   8.389   8.321  0.8731  0.8398  1.3255
 8999SOL    HW227176   4.788   8.443   8.297  0.8071  0.6274  0.3879
 9000SOL     OW27177   5.149   8.436   2.348  0.4371 -0.1536 -0.4535
 9000SOL    HW127178   5.167   8.345   2.385 -0.0367  0.4323  1.3059
 9000SOL    HW227179   5.215   8.501   2.387 -0.9899  0.7385  0.5711
 9001SOL     OW27180   7.930   7.835   0.431  0.1557  0.0012 -0.4409
 9001SOL    HW127181   7.873   7.902   0.383  0.3069  0.5218  0.0890
 9001SOL    HW227182   7.900   7.742   0.408 -0.4427  0.2616 -0.7196
 9002SOL     OW27183   1.514   7.158   5.869 -0.2179  0.0944  0.6100
 9002SOL    HW127184   1.581   7.174   5.942 -0.0030  0.7593  0.2800
 9002SOL    HW227185   1.422   7.179   5.904 -0.0149  1.4498  0.4106
 9003SOL     OW27186   3.330   0.533   8.110  0.5195 -0.2019 -0.2426
 9003SOL    HW127187   3.234   0.507   8.100  0.7094 -0.4573 -1.6089
 9003SOL    HW227188   3.385   0.452   8.127  0.5310 -0.0815  0.3188
 9004SOL     OW27189   6.027   5.962   8.373  0.3602  0.4413 -0.5112
 9004SOL    HW127190   6.019   6.061   8.390  0.4770  0.4485 -0.4948
 9004SOL    HW227191   5.974   5.912   8.441  0.7659  0.4718 -0.1656
 9005SOL     OW27192   5.140   8.705   6.853 -0.5452 -0.2328  0.3464
 9005SOL    HW127193   5.199   8.673   6.928 -0.7012 -0.6911  0.2771
 9005SOL    HW227194   5.162   8.800   6.832  0.2278 -0.4172  0.2677
 9006SOL     OW27195   1.090   5.076   2.297  0.0139  0.3080 -0.4970
 9006SOL    HW127196   1.116   4.980   2.304 -1.6049 -0.3135 -2.1120
 9006SOL    HW227197   1.153   5.124   2.236  1.3120  0.5163  0.9496
 9007SOL     OW27198   2.063   2.029   4.696 -0.0088 -0.0920  0.7792
 9007SOL    HW127199   2.053   2.074   4.608 -0.6878  0.3523  1.0742
 9007SOL    HW227200   1.988   2.056   4.756  0.8602  0.2356  1.7535
 9008SOL     OW27201   3.166   1.496   6.203  0.0586  0.3161  0.2598
 9008SOL    HW127202   3.198   1.402   6.195 -1.5830 -0.1591 -1.1598
 9008SOL    HW227203   3.156   1.536   6.112 -1.0995  1.2117  0.7533
 9009SOL     OW27204   0.195   8.460   1.416  0.0170 -0.5322  0.5245
 9009SOL    HW127205   0.247   8.430   1.336  0.6087  2.5996 -0.4231
 9009SOL    HW227206   0.099   8.469   1.392 -0.0866 -1.2170  0.6786
 9010SOL     OW27207   6.861   1.561   8.438 -0.2055 -0.4886 -0.0402
 9010SOL    HW127208   6.869   1.641   8.379 -1.2109  0.5102  1.1212
 9010SOL    HW227209   6.952   1.525   8.458  0.6020  2.3348  1.9779
 9011SOL     OW27210   6.109   5.155   2.779  0.1872 -0.2124  0.0158
 9011SOL    HW127211   6.170   5.215   2.831 -0.4367  0.1349  0.3595
 9011SOL    HW227212   6.081   5.078   2.837  0.9985 -0.8490 -0.4292
 9012SOL     OW27213   7.458   7.779   4.846  0.5311 -0.7493 -0.4652
 9012SOL    HW127214   7.415   7.855   4.895  0.4282 -2.0438  1.5672
 9012SOL    HW227215   7.528   7.814   4.784  0.4623  0.9841  0.3905
 9013SOL     OW27216   0.526   6.374   0.620  0.0932  0.0692 -0.6164
 9013SOL    HW127217   0.557   6.386   0.526 -1.7562  0.0734 -1.2518
 9013SOL    HW227218   0.455   6.304   0.623  0.0754  0.1211  0.7849
 9014SOL     OW27219   2.867   8.829   5.470  0.0424  0.0972  0.5987
 9014SOL    HW127220   2.950   8.866   5.513 -0.2153  1.5976 -0.1454
 9014SOL    HW227221   2.851   8.875   5.383  0.3275 -2.5879 -0.9864
 9015SOL     OW27222   4.407   4.588   6.674 -0.3125  0.5028  0.0594
 9015SOL    HW127223   4.326   4.544   6.715  0.2029 -0.6585 -0.1262
 9015SOL    HW227224   4.488   4.533   6.693  0.0314  0.1902 -2.0648
 9016SOL     OW27225   8.366   4.917   7.408 -0.7295 -0.1260 -0.5655
 9016SOL    HW127226   8.453   4.903   7.455 -1.3034  0.1528  0.6187
 9016SOL    HW227227   8.311   4.982   7.459 -1.1458  0.6655 -1.9668
 9017SOL     OW27228   6.755   2.428   0.919 -0.4303  0.1440 -0.1707
 9017SOL    HW127229   6.720   2.522   0.919 -1.2058 -0.1237 -1.6025
 9017SOL    HW227230   6.852   2.429   0.942 -0.3423  1.3371 -0.5050
 9018SOL     OW27231   5.408   0.661   3.793 -0.4049  0.0378  0.0343
 9018SOL    HW127232   5.407   0.640   3.891  2.6378  0.9289  0.3467
 9018SOL    HW227233   5.410   0.760   3.780 -0.6142 -0.0729 -0.9317
 9019SOL     OW27234   7.565   7.660   8.235  0.2622  0.3742  0.2421
 9019SOL    HW127235   7.473   7.663   8.275  0.4677 -0.5663  0.8240
 9019SOL    HW227236   7.559   7.672   8.136 -0.8539 -2.7582 -0.1792
 9020SOL     OW27237   6.858   8.775   3.695 -0.1965 -0.1535 -0.7859
 9020SOL    HW127238   6.887   8.845   3.760  0.8061  0.9074 -2.2915
 9020SOL    HW227239   6.771   8.736   3.723  0.4878 -0.1758  1.4817
 9021SOL     OW27240   4.011   7.097   4.810  0.1603  0.0221 -0.0961
 9021SOL    HW127241   3.928   7.062   4.853 -0.2046  0.7246 -0.2049
 9021SOL    HW227242   4.002   7.092   4.711  0.7926 -1.1222 -0.1073
 9022SOL     OW27243   4.792   0.723   3.545 -0.4392  0.0857  1.2336
 9022SOL    HW127244   4.857   0.799   3.546 -2.2395  2.0272 -2.9119
 9022SOL    HW227245   4.719   0.740   3.611  0.0993  1.0459  1.6021
 9023SOL     OW27246   7.536   8.388   0.824 -0.3021  0.2511 -0.0965
 9023SOL    HW127247   7.505   8.472   0.778  0.7551 -0.1038 -1.5353
 9023SOL    HW227248   7.636   8.386   0.826 -0.2551 -1.6567 -1.4820
 9024SOL     OW27249   0.724   8.444   6.445 -0.2667  0.1666  0.1100
 9024SOL    HW127250   0.786   8.380   6.400 -0.4550  0.1934 -0.1922
 9024SOL    HW227251   0.666   8.394   6.510 -0.8627 -0.0885 -0.5959
 9025SOL     OW27252   1.735   2.959   7.487 -0.3616  0.7561 -0.2978
 9025SOL    HW127253   1.704   2.985   7.578 -0.3641  0.2458 -0.1515
 9025SOL    HW227254   1.728   2.860   7.476 -0.0343  0.7782 -0.7306
 9026SOL     OW27255   5.237   8.286   8.480 -0.4979 -0.1573  0.6748
 9026SOL    HW127256   5.160   8.315   8.537 -0.4415  1.6503 -0.1192
 9026SOL    HW227257   5.323   8.304   8.527 -0.4924  0.1006  0.5676
 9027SOL     OW27258   3.138   0.113   8.665  0.1824  0.3281 -0.2852
 9027SOL    HW127259   3.153   0.019   8.634  1.5686  0.4289  0.0064
 9027SOL    HW227260   3.114   0.170   8.586 -0.7848 -0.2749 -0.4481
 9028SOL     OW27261   8.367   6.630   4.633 -1.2551  0.4798 -0.4754
 9028SOL    HW127262   8.297   6.594   4.571  0.7376 -2.5723 -1.1665
 9028SOL    HW227263   8.443   6.667   4.579 -0.2886 -0.5648  0.1453
 9029SOL     OW27264   7.713   5.005   3.979 -0.3117  0.7323 -0.9669
 9029SOL    HW127265   7.689   4.918   3.937  0.7059  0.1376 -0.3692
 9029SOL    HW227266   7.701   4.999   4.078  1.4203  0.6706 -0.7331
 9030SOL     OW27267   6.163   7.316   3.138  0.0744  0.2332 -0.2726
 9030SOL    HW127268   6.262   7.332   3.143 -0.1672  1.5681  0.8898
 9030SOL    HW227269   6.133   7.270   3.221 -0.4311  0.8352 -0.1120
 9031SOL     OW27270   3.417   2.207   7.989  0.7909 -0.0876  0.1047
 9031SOL    HW127271   3.350   2.167   8.051  1.6369 -1.6369  0.0715
 9031SOL    HW227272   3.371   2.272   7.928 -0.5107 -0.4788  0.6384
 9032SOL     OW27273   2.257   8.554   7.647  0.7208  0.2798  0.0907
 9032SOL    HW127274   2.225   8.610   7.571  0.5043 -0.5952 -0.4762
 9032SOL    HW227275   2.293   8.467   7.612 -3.5833 -2.2171  1.1745
 9033SOL     OW27276   0.769   1.400   3.663 -0.1114  0.0781 -0.4888
 9033SOL    HW127277   0.866   1.385   3.678 -0.4102 -0.5785  0.9451
 9033SOL    HW227278   0.726   1.316   3.629 -0.3485  0.0634 -0.1631
 9034SOL     OW27279   8.827   2.154   7.792 -0.2733 -0.5857 -0.1111
 9034SOL    HW127280   8.757   2.108   7.737 -0.9012 -0.7241  0.7751
 9034SOL    HW227281   8.817   2.127   7.888 -1.6007  2.4630  0.7191
 9035SOL     OW27282   8.703   7.847   4.092  0.2045  0.5935 -0.1158
 9035SOL    HW127283   8.731   7.815   4.001 -0.1388 -0.9408  0.2850
 9035SOL    HW227284   8.650   7.931   4.083  1.1259  1.0912 -1.2320
 9036SOL     OW27285   5.677   4.494   8.103 -0.1671 -0.1966 -0.3494
 9036SOL    HW127286   5.746   4.520   8.035 -0.1089 -1.8372 -0.9666
 9036SOL    HW227287   5.705   4.526   8.193  1.2232 -0.5084 -0.6489
 9037SOL     OW27288   7.173   8.720   1.268 -0.8282 -0.4488 -0.5979
 9037SOL    HW127289   7.182   8.624   1.240  0.1630 -0.3613 -0.6038
 9037SOL    HW227290   7.202   8.730   1.363  1.6230  0.2635 -1.3560
 9038SOL     OW27291   2.151   7.583   2.822 -0.6027  0.2445 -0.4574
 9038SOL    HW127292   2.168   7.673   2.863 -1.2554  0.2356 -0.1551
 9038SOL    HW227293   2.219   7.566   2.750  1.5524 -0.3666  1.5814
 9039SOL     OW27294   2.965   4.583   1.545 -0.2625 -0.5516  0.1890
 9039SOL    HW127295   2.916   4.667   1.564  0.4232  0.5432 -2.4848
 9039SOL    HW227296   2.944   4.515   1.616 -3.1582  0.8491  0.8018
 9040SOL     OW27297   5.347   2.592   0.223 -0.0654  0.7940  0.2745
 9040SOL    HW127298   5.436   2.635   0.207 -0.3566  1.5210  0.5624
 9040SOL    HW227299   5.343   2.556   0.316  1.7393 -3.7027 -1.1565
 9041SOL     OW27300   5.284   6.281   3.796 -0.4403 -0.4158  0.2770
 9041SOL    HW127301   5.273   6.290   3.697  2.0128  0.3979  0.0074
 9041SOL    HW227302   5.238   6.358   3.841 -0.4176 -0.0425 -0.3229
 9042SOL     OW27303   8.385   4.720   8.621  0.3414 -0.4334 -0.1705
 9042SOL    HW127304   8.299   4.739   8.573  0.9687 -1.3364 -1.7167
 9042SOL    HW227305   8.365   4.670   8.705 -0.5857 -2.1274 -1.3299
 9043SOL     OW27306   6.389   6.313   5.381 -0.0165  0.0025  0.0505
 9043SOL    HW127307   6.313   6.283   5.439 -0.6032 -0.7675 -1.0816
 9043SOL    HW227308   6.459   6.241   5.380 -0.3977 -0.3747 -0.8511
 9044SOL     OW27309   5.322   2.214   6.297  0.6037 -0.0505 -0.2842
 9044SOL    HW127310   5.377   2.297   6.304  1.2933 -0.3164 -1.9436
 9044SOL    HW227311   5.277   2.212   6.207  0.1230 -1.1789 -0.0299
 9045SOL     OW27312   5.996   7.360   4.496  0.1391 -0.3800  0.0693
 9045SOL    HW127313   5.981   7.446   4.546  1.2211 -0.6575  0.9320
 9045SOL    HW227314   6.002   7.379   4.398 -0.0215  0.4747  0.2161
 9046SOL     OW27315   5.692   3.616   8.138 -0.3545 -0.3477  0.1431
 9046SOL    HW127316   5.648   3.676   8.205 -1.5395  0.6171 -1.4134
 9046SOL    HW227317   5.728   3.672   8.063  1.7345 -1.3203  0.3586
 9047SOL     OW27318   2.172   0.339   7.734 -0.1915  0.2311  0.5264
 9047SOL    HW127319   2.233   0.273   7.689  1.3914  0.6418  1.9700
 9047SOL    HW227320   2.176   0.324   7.833  0.5524  2.7530  0.9297
 9048SOL     OW27321   1.939   2.080   3.600 -0.1228 -0.3115 -0.0288
 9048SOL    HW127322   1.924   1.998   3.655 -1.9922 -0.1759 -0.2488
 9048SOL    HW227323   2.010   2.063   3.532 -0.2466 -1.6366  0.1522
 9049SOL     OW27324   4.447   2.104   0.790  0.0612  0.4497  0.4987
 9049SOL    HW127325   4.420   2.200   0.799  0.0728  0.5208 -0.1412
 9049SOL    HW227326   4.476   2.068   0.878  1.5281  1.4851  0.4713
 9050SOL     OW27327   4.117   4.415   7.833 -0.4576  0.0787 -0.4214
 9050SOL    HW127328   4.156   4.467   7.909  1.4360 -1.6894 -0.1064
 9050SOL    HW227329   4.165   4.438   7.748 -2.3953  1.8559 -1.1320
 9051SOL     OW27330   5.315   7.324   5.861  0.6874 -0.3716  0.5684
 9051SOL    HW127331   5.373   7.251   5.897  2.5379  0.1571 -1.2048
 9051SOL    HW227332   5.354   7.413   5.884  0.7679 -0.0065 -0.8864
 9052SOL     OW27333   4.544   7.385   6.412  0.1289 -0.7301 -0.0448
 9052SOL    HW127334   4.527   7.483   6.416  0.9647 -0.5594 -0.4262
 9052SOL    HW227335   4.466   7.336   6.451 -1.1006  0.0014 -1.4440
 9053SOL     OW27336   3.676   6.634   0.809  0.3201 -0.2422 -0.5780
 9053SOL    HW127337   3.749   6.694   0.777  0.5586 -1.1143 -1.7398
 9053SOL    HW227338   3.664   6.559   0.744 -1.9953  0.1722 -0.7041
 9054SOL     OW27339   4.620   0.582   3.100 -0.2096 -0.0825 -0.1825
 9054SOL    HW127340   4.549   0.562   3.032 -0.5686 -0.8106  0.3890
 9054SOL    HW227341   4.629   0.681   3.110  1.6534  0.1847 -3.1378
 9055SOL     OW27342   2.564   3.324   5.544  0.3438  0.0782 -0.4092
 9055SOL    HW127343   2.499   3.303   5.617  0.7275  0.6179  0.0998
 9055SOL    HW227344   2.516   3.327   5.456 -0.0488 -0.9818 -0.2447
 9056SOL     OW27345   8.333   6.458   7.649 -0.4185  0.2054 -0.4056
 9056SOL    HW127346   8.332   6.554   7.620 -1.1040 -0.3067 -2.1816
 9056SOL    HW227347   8.404   6.445   7.718  0.1604  1.8427 -0.6559
 9057SOL     OW27348   2.756   8.285   1.310  0.2848  0.2035 -0.0944
 9057SOL    HW127349   2.699   8.304   1.390  1.4115  2.3070  0.2974
 9057SOL    HW227350   2.827   8.218   1.335 -1.8184 -2.3478 -0.5605
 9058SOL     OW27351   4.111   0.280   7.179  0.5896  0.4905 -0.2007
 9058SOL    HW127352   4.206   0.250   7.170  0.5583  0.6474 -1.2162
 9058SOL    HW227353   4.053   0.201   7.201  0.6702 -0.0160 -1.6863
 9059SOL     OW27354   3.504   3.742   4.077  0.0848 -0.0056  0.2476
 9059SOL    HW127355   3.481   3.826   4.027 -0.0708  0.6024  1.3034
 9059SOL    HW227356   3.494   3.758   4.175 -1.2147 -1.6661  0.4192
 9060SOL     OW27357   7.902   5.936   4.868 -0.3480 -1.0159 -0.1412
 9060SOL    HW127358   7.923   5.853   4.919 -0.5660 -1.1737 -0.3047
 9060SOL    HW227359   7.903   6.015   4.930 -0.8743 -1.2418  0.1649
 9061SOL     OW27360   7.711   7.814   6.035  0.2879  0.1539  0.3343
 9061SOL    HW127361   7.619   7.827   6.072  0.2896 -0.3489  0.5245
 9061SOL    HW227362   7.777   7.859   6.095  0.1069  1.2042 -0.2265
 9062SOL     OW27363   4.650   1.245   5.834  0.4067  0.1194  0.1636
 9062SOL    HW127364   4.722   1.182   5.864  0.7774  0.4803  0.0385
 9062SOL    HW227365   4.691   1.320   5.782 -0.0752  0.2610 -0.0124
 9063SOL     OW27366   1.017   4.250   0.063  0.0407  0.4828 -0.0416
 9063SOL    HW127367   1.052   4.156   0.057 -0.5958 -0.0740  3.2150
 9063SOL    HW227368   1.092   4.315   0.049  0.6295 -0.4816 -1.6211
 9064SOL     OW27369   1.615   4.677   2.982  0.3248  0.5042  0.3203
 9064SOL    HW127370   1.577   4.605   3.041 -0.1271  1.6512  1.4976
 9064SOL    HW227371   1.694   4.719   3.027  1.2790  0.0050 -0.8606
 9065SOL     OW27372   7.674   5.132   6.796 -0.2880 -0.2843 -0.2983
 9065SOL    HW127373   7.664   5.051   6.738  2.4263 -0.2239 -1.0264
 9065SOL    HW227374   7.769   5.164   6.790 -0.5074  1.0962  2.4343
 9066SOL     OW27375   6.267   6.104   5.252 -0.6635  0.3954  0.5783
 9066SOL    HW127376   6.210   6.073   5.329  0.3368 -1.1569  0.7562
 9066SOL    HW227377   6.279   6.203   5.257 -1.2839  0.4266  1.9592
 9067SOL     OW27378   2.904   2.831   7.213  0.2066 -0.0679 -0.1529
 9067SOL    HW127379   2.869   2.780   7.134 -1.6827  0.5291  0.2400
 9067SOL    HW227380   2.828   2.879   7.257  1.7906  2.8840 -0.3502
 9068SOL     OW27381   1.443   1.915   4.225 -0.1137  0.6518 -0.7184
 9068SOL    HW127382   1.451   1.916   4.126 -0.5361  0.5482 -0.7543
 9068SOL    HW227383   1.505   1.846   4.263 -1.2061 -0.5426 -1.0274
 9069SOL     OW27384   5.765   1.093   3.342 -0.0644 -0.1090 -0.0248
 9069SOL    HW127385   5.739   1.052   3.430  1.1973  0.3912  0.6129
 9069SOL    HW227386   5.684   1.128   3.296 -0.6633  0.3259  1.3122
 9070SOL     OW27387   6.016   2.156   8.378  0.0785  0.3013  0.4771
 9070SOL    HW127388   5.944   2.106   8.425  0.6561  1.7670  3.1117
 9070SOL    HW227389   5.982   2.190   8.290 -1.6144 -1.0774  0.5587
 9071SOL     OW27390   0.187   6.919   8.735 -0.5906  0.4976  0.0068
 9071SOL    HW127391   0.182   6.908   8.834  1.5518 -1.1986  0.0006
 9071SOL    HW227392   0.132   6.998   8.708 -2.2695  0.2424  2.3594
 9072SOL     OW27393   1.848   3.319   6.901 -0.0105  0.6541  0.0577
 9072SOL    HW127394   1.796   3.259   6.841  0.1640  0.8464 -0.2918
 9072SOL    HW227395   1.929   3.271   6.935  0.0130  0.6224 -0.0457
 9073SOL     OW27396   8.505   4.740   7.956 -0.0770  0.2107 -0.6944
 9073SOL    HW127397   8.535   4.668   7.894  1.5453  1.0019 -0.8824
 9073SOL    HW227398   8.407   4.758   7.942 -0.4285 -1.6277 -0.9249
 9074SOL     OW27399   5.624   6.363   6.602  0.1822 -0.3039  0.1701
 9074SOL    HW127400   5.660   6.288   6.658 -0.2641 -0.5114  0.1844
 9074SOL    HW227401   5.599   6.440   6.661  0.3223 -0.2744  0.1904
 9075SOL     OW27402   7.750   5.057   1.875  0.0520  0.0322 -0.3788
 9075SOL    HW127403   7.789   5.054   1.783  0.4984 -0.0992 -0.1876
 9075SOL    HW227404   7.661   5.012   1.875  0.3204 -0.5080 -0.6152
 9076SOL     OW27405   0.400   4.417   7.463  0.4657 -0.0064  0.3343
 9076SOL    HW127406   0.429   4.473   7.541 -0.7642 -1.2760  1.7663
 9076SOL    HW227407   0.403   4.320   7.488 -0.2058 -0.4317 -1.1184
 9077SOL     OW27408   2.960   5.108   4.303  0.2303 -0.3902  0.3830
 9077SOL    HW127409   2.935   5.025   4.252 -0.9037 -0.1051  0.4402
 9077SOL    HW227410   2.893   5.123   4.376  0.8114  0.2127  0.8062
 9078SOL     OW27411   6.058   0.006   2.590 -0.1583  0.2353 -0.3744
 9078SOL    HW127412   6.108  -0.013   2.506 -1.3584  0.0064 -1.0695
 9078SOL    HW227413   6.004  -0.074   2.616 -1.8918  1.1760 -0.9131
 9079SOL     OW27414   1.354   4.141   7.942  0.5571  0.1678  0.1491
 9079SOL    HW127415   1.285   4.078   7.979  1.0636 -0.7224 -0.3935
 9079SOL    HW227416   1.342   4.231   7.983 -1.1049  0.1060 -0.1099
 9080SOL     OW27417   8.810   2.419   3.672 -0.0739  0.0647 -0.0345
 9080SOL    HW127418   8.745   2.441   3.745 -0.1600 -0.6690  0.1188
 9080SOL    HW227419   8.776   2.453   3.585 -0.5642 -0.1348  0.0779
 9081SOL     OW27420   7.299   4.869   3.938  0.2606 -0.5590  0.1370
 9081SOL    HW127421   7.255   4.785   3.906  0.5062 -0.9120  0.7071
 9081SOL    HW227422   7.361   4.847   4.013  0.7425  0.0606 -0.0795
 9082SOL     OW27423   6.794   3.005   7.905 -0.4773 -0.2913 -0.3379
 9082SOL    HW127424   6.873   3.002   7.967  0.0863 -0.0364 -1.0339
 9082SOL    HW227425   6.713   2.970   7.953  0.5215 -2.7974 -0.2910
 9083SOL     OW27426   8.339   6.470   5.857  0.1162 -0.8621 -0.1360
 9083SOL    HW127427   8.438   6.487   5.866 -0.2504  0.5689  1.7562
 9083SOL    HW227428   8.299   6.541   5.799 -0.2835  0.6211  1.8665
 9084SOL     OW27429   1.779   4.073   7.879  0.4713 -0.3750 -0.0073
 9084SOL    HW127430   1.757   4.156   7.932  0.2800 -0.7784  0.5535
 9084SOL    HW227431   1.869   4.083   7.838  0.6416 -0.0641  0.4286
 9085SOL     OW27432   1.347   7.317   8.406  0.3026  0.4337 -0.4576
 9085SOL    HW127433   1.324   7.407   8.370  0.2189 -0.1675 -2.0020
 9085SOL    HW227434   1.442   7.295   8.382  0.5207  0.3473  0.4429
 9086SOL     OW27435   4.655   1.285   1.626 -0.8128  0.0353  0.6234
 9086SOL    HW127436   4.576   1.321   1.675 -1.2080  0.7068 -0.4784
 9086SOL    HW227437   4.626   1.250   1.537  0.2852  1.3458 -0.2773
 9087SOL     OW27438   5.690   7.247   1.827  0.1856 -0.3360 -0.4824
 9087SOL    HW127439   5.714   7.192   1.907 -1.2272 -1.3603 -0.7259
 9087SOL    HW227440   5.695   7.344   1.851  1.1046 -0.5865  0.4368
 9088SOL     OW27441   1.374   8.226   2.268  0.0975  0.2622 -0.0449
 9088SOL    HW127442   1.275   8.217   2.263 -0.0301  0.5088  1.6489
 9088SOL    HW227443   1.398   8.322   2.283  0.5122  0.0140  0.9615
 9089SOL     OW27444   5.075   7.107   5.949  0.1938  0.6707  0.0804
 9089SOL    HW127445   5.031   7.143   5.866 -1.3629  0.4963  0.7831
 9089SOL    HW227446   5.048   7.012   5.961  0.2234  0.7589  0.8876
 9090SOL     OW27447   6.725   5.524   4.344  0.3459 -0.3288  0.0543
 9090SOL    HW127448   6.754   5.498   4.252 -0.2039  1.7668 -0.7829
 9090SOL    HW227449   6.750   5.453   4.409 -0.6263 -2.6104 -1.9225
 9091SOL     OW27450   3.580   1.830   4.285  0.0382 -0.3202 -0.2741
 9091SOL    HW127451   3.513   1.896   4.250  0.0456 -0.9680 -1.5750
 9091SOL    HW227452   3.604   1.766   4.212  3.3195  0.8559 -0.3876
 9092SOL     OW27453   0.507   5.492   8.394  0.1674 -0.1526 -0.3518
 9092SOL    HW127454   0.540   5.585   8.410 -0.8821  0.0631  0.6871
 9092SOL    HW227455   0.445   5.491   8.316  1.1380 -0.2267 -1.1452
 9093SOL     OW27456   2.433   7.461   4.908 -0.3262 -0.0436 -0.5968
 9093SOL    HW127457   2.406   7.397   4.980 -1.0152 -0.3788 -1.1405
 9093SOL    HW227458   2.426   7.416   4.819  0.6024  0.3404 -0.8759
 9094SOL     OW27459   1.971   0.778   5.627  0.7164 -0.2117  0.1552
 9094SOL    HW127460   1.959   0.878   5.627 -3.8167 -0.5263 -1.1912
 9094SOL    HW227461   1.938   0.741   5.713 -1.1471 -0.6722 -0.6952
 9095SOL     OW27462   8.684   2.532   8.788 -0.2378  0.2998 -0.1740
 9095SOL    HW127463   8.630   2.610   8.819  0.9145  0.8063  0.6536
 9095SOL    HW227464   8.776   2.563   8.763 -0.6320 -0.3366 -2.7316
 9096SOL     OW27465   7.686   2.192   1.843  0.1093 -0.1153  1.0668
 9096SOL    HW127466   7.756   2.251   1.884  0.1173  1.3289 -0.8821
 9096SOL    HW227467   7.597   2.214   1.883  0.5634 -1.2490  2.8209
 9097SOL     OW27468   4.406   1.754   0.018 -0.6763 -0.1519 -0.1971
 9097SOL    HW127469   4.388   1.682   0.084  1.5937 -1.3858 -0.8307
 9097SOL    HW227470   4.369   1.729  -0.071 -0.6048 -0.1415 -0.2299
 9098SOL     OW27471   7.506   3.940   7.623 -0.4693  0.1360 -0.3933
 9098SOL    HW127472   7.409   3.949   7.600 -0.6054  0.8820  0.3978
 9098SOL    HW227473   7.537   3.847   7.602 -1.8656 -0.7331  1.1455
 9099SOL     OW27474   5.974   3.103   4.000  0.7726  0.1866  0.2460
 9099SOL    HW127475   5.900   3.136   4.059  1.2520  0.6222  0.6131
 9099SOL    HW227476   6.053   3.163   4.010  1.0694 -0.0963 -0.3816
 9100SOL     OW27477   8.598   3.474   7.173  0.2714 -0.4285 -0.2070
 9100SOL    HW127478   8.629   3.475   7.078 -1.0276  0.5267 -0.6599
 9100SOL    HW227479   8.633   3.554   7.221 -1.3740  0.6701 -0.7286
 9101SOL     OW27480   5.497   5.532   5.811 -0.2560 -0.0881  0.2599
 9101SOL    HW127481   5.447   5.513   5.726 -0.3035  1.2883 -0.0548
 9101SOL    HW227482   5.467   5.620   5.848  1.6465  0.6050  0.2521
 9102SOL     OW27483   2.690   1.514   4.261 -0.5730 -0.0000  0.6550
 9102SOL    HW127484   2.672   1.549   4.169 -2.5480  0.3704  1.1311
 9102SOL    HW227485   2.692   1.590   4.326 -2.3886 -0.5035  1.3472
 9103SOL     OW27486   3.379   8.438   6.676 -0.0742  0.3557 -0.1352
 9103SOL    HW127487   3.400   8.535   6.674 -0.8638  0.5585  0.7029
 9103SOL    HW227488   3.355   8.407   6.584  1.3176  0.6775 -0.6210
 9104SOL     OW27489   2.402   2.331   2.154  0.1802  0.1733  0.4302
 9104SOL    HW127490   2.473   2.290   2.097  0.0068  0.9328 -0.3502
 9104SOL    HW227491   2.316   2.281   2.142 -0.5342  1.7993 -1.9725
 9105SOL     OW27492   4.618   2.353   0.343 -0.8723 -0.2830 -0.1567
 9105SOL    HW127493   4.539   2.380   0.398  1.0490  2.2037  1.5851
 9105SOL    HW227494   4.697   2.407   0.369  1.7322 -3.3278 -1.1510
 9106SOL     OW27495   4.382   3.836   7.749  0.4704 -0.5425 -0.0626
 9106SOL    HW127496   4.452   3.794   7.808  2.0531  0.1679 -1.3388
 9106SOL    HW227497   4.345   3.917   7.794  0.4211 -0.9625  0.6680
 9107SOL     OW27498   6.565   2.253   8.406 -0.0331 -0.0694  0.1482
 9107SOL    HW127499   6.647   2.306   8.384 -0.8365  0.3128 -2.1473
 9107SOL    HW227500   6.551   2.253   8.505  2.1618  0.6807  0.5183
 9108SOL     OW27501   7.035   6.109   6.889 -0.3696  0.3240 -0.7243
 9108SOL    HW127502   7.121   6.108   6.941 -0.6812 -0.8109 -0.1906
 9108SOL    HW227503   7.003   6.203   6.878 -0.5235  0.5995  1.5593
 9109SOL     OW27504   4.406   7.857   5.214  0.0607 -0.3601  0.3297
 9109SOL    HW127505   4.437   7.924   5.147 -0.6066  2.2160  2.4499
 9109SOL    HW227506   4.471   7.854   5.290 -0.2750 -1.6456  0.5898
 9110SOL     OW27507   8.776   6.789   7.513 -0.0602 -0.4123 -0.4456
 9110SOL    HW127508   8.845   6.767   7.582 -0.9187  0.5243  0.7608
 9110SOL    HW227509   8.695   6.732   7.527 -1.0847  1.2376  0.7528
 9111SOL     OW27510   6.162   7.268   5.089  0.1778 -0.5990 -0.0922
 9111SOL    HW127511   6.209   7.227   5.167  0.3540 -0.1367  0.0484
 9111SOL    HW227512   6.068   7.292   5.115  1.0024  2.0373  0.8663
 9112SOL     OW27513   0.838   1.690   3.689  0.0987  0.7350 -0.2279
 9112SOL    HW127514   0.783   1.731   3.762 -0.1169 -1.2593  0.8316
 9112SOL    HW227515   0.833   1.590   3.697  1.0990  0.4786 -2.2440
 9113SOL     OW27516   7.056   7.421   2.070 -0.2488 -0.4204  0.1544
 9113SOL    HW127517   7.071   7.514   2.104 -0.2025 -0.5194  0.4028
 9113SOL    HW227518   6.990   7.423   1.995  1.9794  0.2322 -1.9396
 9114SOL     OW27519   4.851   8.664   6.577  0.4074 -0.0127 -0.5590
 9114SOL    HW127520   4.896   8.586   6.534 -0.4111  0.3538 -2.1866
 9114SOL    HW227521   4.902   8.747   6.557  0.5969  0.0342  0.1041
 9115SOL     OW27522   3.027   4.385   1.365 -0.1324  0.0632  0.2304
 9115SOL    HW127523   3.124   4.365   1.358  0.2205  2.0982 -2.1147
 9115SOL    HW227524   3.011   4.451   1.439  0.2171 -0.3941  0.7231
 9116SOL     OW27525   4.418   0.140   7.714  0.0441  0.1565 -0.3554
 9116SOL    HW127526   4.331   0.128   7.666  0.3228 -1.6395 -0.4616
 9116SOL    HW227527   4.493   0.108   7.656  0.8296  1.7774 -0.3111
 9117SOL     OW27528   4.649   3.094   0.398 -0.2092  0.1625 -0.2108
 9117SOL    HW127529   4.636   3.037   0.479  2.0920  1.8722  1.5059
 9117SOL    HW227530   4.620   3.187   0.418 -0.5089  0.4327 -1.7414
 9118SOL     OW27531   0.035   5.716   3.764  0.0580 -0.1331  0.5247
 9118SOL    HW127532  -0.002   5.624   3.776 -0.0318  0.1864  3.6218
 9118SOL    HW227533  -0.041   5.780   3.749 -0.0562 -0.3005  0.3801
 9119SOL     OW27534   3.677   3.003   3.269  0.1063 -0.6180 -0.0391
 9119SOL    HW127535   3.760   2.948   3.281  0.8077  0.4695  0.1700
 9119SOL    HW227536   3.696   3.081   3.210 -1.0078 -0.8302 -0.7179
 9120SOL     OW27537   3.526   4.411   5.023  0.2951 -0.2547  0.2540
 9120SOL    HW127538   3.435   4.453   5.012  0.0858 -0.5646  0.8017
 9120SOL    HW227539   3.595   4.473   4.985 -0.0897  0.2330  0.3268
 9121SOL     OW27540   0.226   0.218   7.783  0.1201  0.0616 -0.1864
 9121SOL    HW127541   0.293   0.194   7.712 -0.8721 -0.3512 -1.0014
 9121SOL    HW227542   0.241   0.313   7.811  1.1924 -0.0892 -0.1843
 9122SOL     OW27543   4.327   7.548   7.830 -0.6097 -0.1707  0.1919
 9122SOL    HW127544   4.389   7.575   7.756 -1.2010  0.1580 -0.1895
 9122SOL    HW227545   4.374   7.559   7.918 -0.1091  0.0242 -0.0959
 9123SOL     OW27546   6.603   7.953   5.159 -0.2822 -0.0331 -0.0913
 9123SOL    HW127547   6.679   8.018   5.165  0.2820 -0.5525 -1.2046
 9123SOL    HW227548   6.605   7.908   5.070 -1.3854 -0.7036  0.1991
 9124SOL     OW27549   4.721   4.168   0.983 -0.2834  0.1140 -0.2178
 9124SOL    HW127550   4.778   4.247   0.958  0.8148 -0.6041 -0.0320
 9124SOL    HW227551   4.779   4.091   1.007 -1.1675  0.5800  4.3291
 9125SOL     OW27552   2.171   6.577   7.767 -0.0223 -0.0017 -0.0634
 9125SOL    HW127553   2.214   6.581   7.677  1.5443  1.6035  0.6808
 9125SOL    HW227554   2.075   6.554   7.758  0.1096  0.1101 -2.1324
 9126SOL     OW27555   1.061   3.569   2.858 -0.0426  0.0497  0.0016
 9126SOL    HW127556   1.102   3.483   2.825  0.7862 -0.0753  1.3211
 9126SOL    HW227557   1.101   3.646   2.808  0.1583 -0.2291 -0.2739
 9127SOL     OW27558   3.253   7.730   1.117  0.1711  0.1660 -0.1279
 9127SOL    HW127559   3.309   7.793   1.171 -0.7895  1.2115 -0.3033
 9127SOL    HW227560   3.219   7.777   1.036 -2.8971  0.3904  1.1284
 9128SOL     OW27561   8.579   3.053   0.996  0.1304  0.1349  0.0310
 9128SOL    HW127562   8.615   2.960   0.994  1.6652  0.6641  1.4381
 9128SOL    HW227563   8.590   3.095   0.905  2.9186  0.1732  0.3018
 9129SOL     OW27564   5.051   4.054   3.024 -0.2457  0.1069  0.1068
 9129SOL    HW127565   4.962   4.070   2.981  0.1889  1.7558 -0.2420
 9129SOL    HW227566   5.108   3.999   2.963 -1.3635 -1.8985  0.7948
 9130SOL     OW27567   0.539   0.090   5.535 -0.0011  0.1399 -0.4046
 9130SOL    HW127568   0.452   0.128   5.504  0.4917 -0.5211 -2.8306
 9130SOL    HW227569   0.555   0.002   5.489  2.7248  1.0709 -1.4448
 9131SOL     OW27570   6.475   3.414   3.095  0.1730  0.5610  0.8359
 9131SOL    HW127571   6.442   3.413   3.190 -1.8868 -0.7361  0.1686
 9131SOL    HW227572   6.444   3.331   3.048  0.5384  1.5033 -1.1726
 9132SOL     OW27573   4.705   5.288   7.541  0.3205  0.1971 -0.3784
 9132SOL    HW127574   4.804   5.305   7.540  0.2449  0.6132 -0.7393
 9132SOL    HW227575   4.683   5.215   7.476  0.3656  0.2492 -0.4534
 9133SOL     OW27576   3.217   0.245   6.242 -0.5005 -0.0595  0.3330
 9133SOL    HW127577   3.290   0.183   6.214  0.2691 -0.3049  2.6347
 9133SOL    HW227578   3.131   0.195   6.248 -0.7485  0.0664 -1.7046
 9134SOL     OW27579   7.897   7.454   1.088 -0.3304 -0.1693  0.0809
 9134SOL    HW127580   7.977   7.409   1.128 -0.7773 -0.8142  0.2586
 9134SOL    HW227581   7.921   7.493   0.999  0.6815  1.2767  0.9344
 9135SOL     OW27582   5.400   8.461   6.815 -0.2635  0.1233 -0.4392
 9135SOL    HW127583   5.340   8.420   6.746  0.2232 -0.6895 -0.3946
 9135SOL    HW227584   5.456   8.531   6.772 -0.4803  0.1312 -0.7141
 9136SOL     OW27585   3.904   4.065   6.625 -0.1832 -0.4826  0.1512
 9136SOL    HW127586   3.997   4.037   6.651 -0.2568 -2.5447 -1.4894
 9136SOL    HW227587   3.847   3.983   6.616 -1.9642  0.6994  0.3318
 9137SOL     OW27588   4.444   3.330   0.123  0.3719  0.1406  0.2138
 9137SOL    HW127589   4.541   3.352   0.112  0.0752  1.2116 -0.3461
 9137SOL    HW227590   4.389   3.410   0.103 -0.6475 -0.5075  0.3571
 9138SOL     OW27591   1.226   5.694   6.429 -0.6119  0.1546 -0.4489
 9138SOL    HW127592   1.160   5.631   6.389  0.4733 -1.0547 -0.4003
 9138SOL    HW227593   1.197   5.788   6.413 -2.3955 -0.3428 -0.3187
 9139SOL     OW27594   1.308   2.418   2.184 -0.3884  0.0196  0.3497
 9139SOL    HW127595   1.357   2.369   2.256 -1.1496 -0.5633  0.4776
 9139SOL    HW227596   1.250   2.488   2.224 -2.2586 -1.5245  0.5080
 9140SOL     OW27597   8.135   6.305   3.526  0.3967 -0.1292  0.4557
 9140SOL    HW127598   8.087   6.219   3.538  0.9108 -0.2309  2.0530
 9140SOL    HW227599   8.092   6.376   3.582 -0.2841  0.7914 -1.1637
 9141SOL     OW27600   2.808   5.028   7.401  0.0678  0.0240 -0.2235
 9141SOL    HW127601   2.878   5.078   7.451  1.3026 -1.9258  0.0944
 9141SOL    HW227602   2.840   5.010   7.308 -1.1592  1.3989 -0.9597
 9142SOL     OW27603   4.456   5.618   2.936 -0.1285  0.3363  0.5255
 9142SOL    HW127604   4.525   5.681   2.899 -0.9125  1.6128  1.1741
 9142SOL    HW227605   4.489   5.581   3.023  0.0988  0.2647  0.4111
 9143SOL     OW27606   1.514   0.019   5.933 -0.2167  0.4258 -0.0185
 9143SOL    HW127607   1.575  -0.045   5.980 -2.0593 -1.7029 -0.4108
 9143SOL    HW227608   1.508  -0.006   5.836 -0.9703  1.2180 -0.1834
 9144SOL     OW27609   0.456   6.638   0.654  0.0064 -0.3538 -0.3290
 9144SOL    HW127610   0.504   6.554   0.628 -1.8617 -1.3824 -0.6732
 9144SOL    HW227611   0.430   6.632   0.750 -0.3899 -0.3288 -0.4310
 9145SOL     OW27612   0.560   6.236   7.289 -0.1845 -0.3597 -0.1530
 9145SOL    HW127613   0.602   6.324   7.264  0.9385 -0.7537  0.2904
 9145SOL    HW227614   0.602   6.163   7.235 -0.4270 -0.7367  0.1676
 9146SOL     OW27615   0.736   3.536   8.017 -0.2459  1.1988  0.1891
 9146SOL    HW127616   0.679   3.454   8.024 -0.7828  1.5639  0.1553
 9146SOL    HW227617   0.691   3.612   8.063  0.0788  1.5666 -0.0920
 9147SOL     OW27618   5.884   4.242   1.539 -0.1998 -0.2042  0.4136
 9147SOL    HW127619   5.877   4.323   1.480 -1.3234 -0.4682  0.1562
 9147SOL    HW227620   5.978   4.230   1.568  0.1355  0.7050 -0.2502
 9148SOL     OW27621   5.619   3.005   6.765 -0.3274 -0.4245  0.2167
 9148SOL    HW127622   5.567   3.087   6.742  0.3072 -0.8054 -3.0033
 9148SOL    HW227623   5.696   3.030   6.824  0.4194  1.5093 -1.4811
 9149SOL     OW27624   5.333   8.111   5.684 -0.1157  0.2150  0.2066
 9149SOL    HW127625   5.422   8.083   5.648  1.2993  1.8903  2.1556
 9149SOL    HW227626   5.331   8.211   5.692 -2.4208  0.2516 -0.3345
 9150SOL     OW27627   3.611   5.499   6.231 -0.5367  0.2057  0.1561
 9150SOL    HW127628   3.603   5.422   6.295 -1.9841  0.2345  0.0415
 9150SOL    HW227629   3.675   5.475   6.158  0.6578 -0.0728  1.2502
 9151SOL     OW27630   5.879   4.715   1.653 -0.1707  0.2615  0.6180
 9151SOL    HW127631   5.964   4.671   1.623 -1.0804 -0.2153 -1.4572
 9151SOL    HW227632   5.894   4.759   1.742  2.4139  0.7805  0.0094
 9152SOL     OW27633   2.815   4.155   8.391 -0.5890  0.3763 -0.5628
 9152SOL    HW127634   2.837   4.252   8.400 -0.3384  0.2403  0.4340
 9152SOL    HW227635   2.825   4.110   8.480  0.5616 -0.8202 -1.2428
 9153SOL     OW27636   7.062   8.536   7.629  0.4373 -0.2382 -0.4251
 9153SOL    HW127637   7.045   8.445   7.592 -0.7293 -0.9897  1.7523
 9153SOL    HW227638   7.116   8.529   7.713 -0.0733  1.0059  0.0494
 9154SOL     OW27639   7.706   1.128   4.604 -0.0179  0.4284  0.1847
 9154SOL    HW127640   7.681   1.184   4.525 -1.0381  0.1811  0.3099
 9154SOL    HW227641   7.626   1.117   4.663  0.4727 -0.2078  0.7518
 9155SOL     OW27642   2.935   5.282   6.923 -0.3073  0.2765  0.1101
 9155SOL    HW127643   2.976   5.196   6.892  2.0570  1.3424  0.0875
 9155SOL    HW227644   2.865   5.310   6.859  1.3604  0.1271 -1.8858
 9156SOL     OW27645   4.826   4.957   3.659  0.3125  0.2203 -0.4013
 9156SOL    HW127646   4.787   5.000   3.741  1.8328  2.0150 -0.5458
 9156SOL    HW227647   4.924   4.973   3.657  0.3732 -0.1826 -2.3463
 9157SOL     OW27648   2.363   8.692   4.825 -0.1161 -0.1179 -0.0253
 9157SOL    HW127649   2.331   8.767   4.767 -2.2460  1.3063  2.7435
 9157SOL    HW227650   2.463   8.693   4.829 -0.0516  1.7692 -1.0829
 9158SOL     OW27651   4.085   8.630   6.041 -0.1125  0.1906  0.2038
 9158SOL    HW127652   4.162   8.687   6.016 -0.0131 -0.0126  0.0394
 9158SOL    HW227653   4.069   8.635   6.139 -1.0551  1.6873  0.0031
 9159SOL     OW27654   3.587   5.556   1.640 -0.0016  0.4177 -0.1953
 9159SOL    HW127655   3.675   5.552   1.687  0.6830  2.5600 -1.1422
 9159SOL    HW227656   3.522   5.493   1.683  1.4021  0.2457  1.7726
 9160SOL     OW27657   2.865   8.699   1.769 -0.4501  0.2397 -0.2339
 9160SOL    HW127658   2.868   8.714   1.868 -0.0867  1.5718 -0.4214
 9160SOL    HW227659   2.850   8.602   1.751  1.7082 -0.4386  1.1211
 9161SOL     OW27660   1.428   7.961   8.699 -0.0985 -0.3417 -0.1354
 9161SOL    HW127661   1.471   7.970   8.609 -0.5033  0.6554 -0.2427
 9161SOL    HW227662   1.491   7.917   8.762  0.6352  0.0410 -0.5926
 9162SOL     OW27663   4.504   7.239   4.212 -0.3644  0.3048  0.2550
 9162SOL    HW127664   4.443   7.198   4.144  1.0550 -1.3157 -0.1245
 9162SOL    HW227665   4.453   7.261   4.295 -1.8854  1.1758 -0.8693
 9163SOL     OW27666   8.426   7.988   6.487 -0.1394 -0.1390  0.1324
 9163SOL    HW127667   8.454   7.990   6.583 -1.4690  0.4979  0.5463
 9163SOL    HW227668   8.505   8.006   6.428  0.8059 -1.1248  1.0653
 9164SOL     OW27669   7.661   1.935   5.391 -0.1307 -0.1245 -0.1283
 9164SOL    HW127670   7.672   1.857   5.453 -0.6978  0.1614  0.3428
 9164SOL    HW227671   7.607   2.006   5.436  3.6717  2.3266  1.1240
 9165SOL     OW27672   3.843   3.721   2.019  0.5136  0.1441 -0.1954
 9165SOL    HW127673   3.876   3.791   2.082 -3.1200  1.5472  0.4041
 9165SOL    HW227674   3.898   3.722   1.935  1.9852  2.1160  0.7272
 9166SOL     OW27675   6.429   3.756   5.100 -0.0901 -0.5478 -0.0622
 9166SOL    HW127676   6.456   3.852   5.114 -0.9568 -0.2874 -0.1140
 9166SOL    HW227677   6.510   3.701   5.082  0.5819 -0.0713  1.3479
 9167SOL     OW27678   8.262   1.817   2.740  0.6444 -0.4956  0.2725
 9167SOL    HW127679   8.162   1.809   2.746  0.3585 -0.5696 -2.7677
 9167SOL    HW227680   8.304   1.778   2.821 -1.7862 -0.3618  1.6919
 9168SOL     OW27681   2.270   2.579   0.240  0.1669 -0.3792  0.2826
 9168SOL    HW127682   2.218   2.648   0.189 -1.0586 -0.6817  1.0925
 9168SOL    HW227683   2.274   2.606   0.336 -1.6436 -2.1562  0.9142
 9169SOL     OW27684   1.921   4.154   1.530 -0.2006 -0.2748 -0.0386
 9169SOL    HW127685   1.869   4.081   1.485 -1.8907  0.5713  0.4672
 9169SOL    HW227686   1.985   4.114   1.595  0.0581 -1.3662 -0.9235
 9170SOL     OW27687   0.653   8.457   0.019  0.0797 -0.5725 -0.3070
 9170SOL    HW127688   0.576   8.445  -0.044 -0.8301  0.8170  0.4646
 9170SOL    HW227689   0.732   8.490  -0.031 -1.3284  2.9156 -0.5348
 9171SOL     OW27690   0.768   2.053   7.860 -0.0487 -0.2080  0.2117
 9171SOL    HW127691   0.699   2.071   7.790 -0.4685 -0.4029  0.5722
 9171SOL    HW227692   0.772   1.955   7.878  1.9656 -0.5223 -1.4792
 9172SOL     OW27693   3.402   8.522   1.025  0.1512  0.2880  0.0810
 9172SOL    HW127694   3.418   8.617   1.052 -1.2942  0.5289  0.1399
 9172SOL    HW227695   3.425   8.510   0.928 -0.8718  1.0125 -0.2578
 9173SOL     OW27696   3.027   2.139   5.743  0.2564  0.2529  0.4205
 9173SOL    HW127697   3.052   2.203   5.670  0.2771 -0.3593 -0.1177
 9173SOL    HW227698   2.962   2.184   5.804  3.4326  2.3274  2.5682
 9174SOL     OW27699   1.171   6.247   0.221  0.2062 -0.0025 -0.4064
 9174SOL    HW127700   1.071   6.250   0.220  0.1134 -1.8172 -1.2051
 9174SOL    HW227701   1.202   6.185   0.149  2.0114  2.1472 -1.5973
 9175SOL     OW27702   1.535   1.393   2.253 -0.0229 -0.3789  0.1081
 9175SOL    HW127703   1.457   1.367   2.195  1.0824  0.3641 -1.8116
 9175SOL    HW227704   1.584   1.311   2.280 -0.6542 -0.7584  0.1383
 9176SOL     OW27705   8.824   4.187   8.016  0.5521  0.3365 -0.1256
 9176SOL    HW127706   8.786   4.279   8.012 -0.0638  0.0423 -2.3826
 9176SOL    HW227707   8.764   4.129   8.072  0.4519  1.0752  0.5538
 9177SOL     OW27708   8.184   8.666   3.141 -0.0465 -0.2212 -0.1896
 9177SOL    HW127709   8.098   8.666   3.192  0.6928  0.5755  1.1394
 9177SOL    HW227710   8.167   8.691   3.046 -1.1465  1.3999  0.3805
 9178SOL     OW27711   7.205   1.748   3.772  0.4360  0.3388  0.0367
 9178SOL    HW127712   7.287   1.693   3.789  0.1474  0.1334  0.7890
 9178SOL    HW227713   7.189   1.808   3.850  0.8579  1.6409 -0.8596
 9179SOL     OW27714   7.443   2.657   3.580 -0.2264  0.5702  0.3618
 9179SOL    HW127715   7.368   2.594   3.601  0.2218  0.5145  1.9826
 9179SOL    HW227716   7.530   2.609   3.593  0.1166  1.4274  1.3429
 9180SOL     OW27717   7.911   5.149   5.594 -0.0378 -0.1286 -0.5023
 9180SOL    HW127718   7.868   5.186   5.677  2.3380 -0.6508  1.0806
 9180SOL    HW227719   7.892   5.208   5.517 -1.8295  0.7240  0.5450
 9181SOL     OW27720   6.133   0.817   5.497  0.0107 -0.3375  0.1789
 9181SOL    HW127721   6.169   0.744   5.439  0.2393 -0.5895  0.6336
 9181SOL    HW227722   6.107   0.779   5.586 -1.2436 -0.1458 -0.0779
 9182SOL     OW27723   8.572   1.226   4.133  0.0086 -0.0167  0.0420
 9182SOL    HW127724   8.568   1.310   4.079  1.6855 -0.1835 -0.4001
 9182SOL    HW227725   8.518   1.155   4.089  1.5711 -0.2405 -1.6313
 9183SOL     OW27726   3.916   7.927   8.480 -0.1868 -0.0105 -0.1409
 9183SOL    HW127727   3.938   7.950   8.575  1.6349 -0.5831 -0.3933
 9183SOL    HW227728   3.858   7.845   8.478 -0.4529  0.1575  0.4807
 9184SOL     OW27729   4.841   1.111   5.199  0.3836  0.1987  0.1508
 9184SOL    HW127730   4.912   1.146   5.261 -0.7378 -0.6585  2.0168
 9184SOL    HW227731   4.752   1.142   5.230 -0.4975 -2.6641  0.8193
 9185SOL     OW27732   8.056   2.668   2.577 -0.2988  0.2146 -0.2176
 9185SOL    HW127733   8.102   2.590   2.534 -0.0105 -0.2118  0.8254
 9185SOL    HW227734   7.962   2.674   2.543 -0.2537 -0.4483 -0.4831
 9186SOL     OW27735   0.328   7.937   0.719 -0.6156  0.2394  0.9279
 9186SOL    HW127736   0.406   7.938   0.657 -0.5005  1.8074  1.0602
 9186SOL    HW227737   0.250   7.893   0.675 -1.0738  2.8125 -1.0340
 9187SOL     OW27738   8.451   1.334   6.697  0.4930  0.2692  0.3524
 9187SOL    HW127739   8.506   1.416   6.710 -0.3814  0.5686  2.8132
 9187SOL    HW227740   8.432   1.321   6.600 -2.0565  4.8379 -0.0557
 9188SOL     OW27741   5.377   2.367   3.306 -0.0619  0.3256  0.3857
 9188SOL    HW127742   5.332   2.444   3.350  0.0422  2.5642 -3.0577
 9188SOL    HW227743   5.469   2.356   3.343 -0.3538  1.3726  1.4454
 9189SOL     OW27744   1.746   0.050   0.633 -0.1452  0.2102  0.6423
 9189SOL    HW127745   1.842   0.027   0.615  0.8765  2.3651  2.7779
 9189SOL    HW227746   1.719   0.128   0.576  0.0063  0.7900  1.3417
 9190SOL     OW27747   0.093   0.546   4.616 -0.1278 -0.3292 -0.5493
 9190SOL    HW127748  -0.003   0.562   4.639 -0.8338 -1.8016 -2.2789
 9190SOL    HW227749   0.128   0.623   4.563 -0.0180  0.6734  0.9220
 9191SOL     OW27750   7.302   4.691   2.605 -0.0321  0.1508 -0.1084
 9191SOL    HW127751   7.303   4.603   2.558  0.9455 -0.5118  1.0850
 9191SOL    HW227752   7.221   4.696   2.663  0.3259 -0.3160  0.4411
 9192SOL     OW27753   6.110   8.498   7.466 -0.2980 -0.2237 -0.0785
 9192SOL    HW127754   6.199   8.454   7.454 -0.0881  0.0976  0.2563
 9192SOL    HW227755   6.066   8.460   7.547 -0.1900  0.0549  0.1135
 9193SOL     OW27756   8.213   0.849   4.352 -0.1484  0.0758 -0.0796
 9193SOL    HW127757   8.252   0.938   4.328 -1.0641  0.5594  0.2008
 9193SOL    HW227758   8.207   0.840   4.451 -0.9188  0.0925 -0.1171
 9194SOL     OW27759   0.234   8.139   1.968 -0.1623  0.1700  0.0109
 9194SOL    HW127760   0.298   8.181   1.904  0.0590 -0.0106  0.1131
 9194SOL    HW227761   0.147   8.188   1.965 -0.1320  0.1992 -0.3791
 9195SOL     OW27762   6.371   2.833   5.635 -0.1548 -0.2601 -0.0695
 9195SOL    HW127763   6.425   2.885   5.569 -0.6837  1.0289  0.4668
 9195SOL    HW227764   6.424   2.756   5.669  1.3922  1.0198  0.5016
 9196SOL     OW27765   6.875   2.742   4.336  0.5427 -0.5440 -0.3309
 9196SOL    HW127766   6.890   2.785   4.247 -0.0554 -0.3090 -0.3166
 9196SOL    HW227767   6.957   2.752   4.392  0.6682 -0.0799 -0.5986
 9197SOL     OW27768   5.967   8.163   6.443  0.3669  0.1054 -0.2871
 9197SOL    HW127769   6.042   8.194   6.384  1.0837 -1.1031 -0.0479
 9197SOL    HW227770   5.931   8.241   6.494  1.1732  0.7907 -0.7260
 9198SOL     OW27771   7.526   3.672   7.621  0.1427  0.3727 -0.1059
 9198SOL    HW127772   7.439   3.640   7.658 -0.6065  0.6290 -1.5832
 9198SOL    HW227773   7.598   3.607   7.645 -0.9110 -1.1828 -0.9721
 9199SOL     OW27774   2.868   8.432   6.220  0.5979 -0.0501  0.2282
 9199SOL    HW127775   2.790   8.493   6.207  0.1886 -0.5701  0.2129
 9199SOL    HW227776   2.850   8.345   6.174  1.1384 -0.2134  0.3219
 9200SOL     OW27777   3.752   4.876   7.721 -0.4432 -0.0909  0.5449
 9200SOL    HW127778   3.767   4.937   7.644 -1.9644  0.9421  1.0296
 9200SOL    HW227779   3.824   4.890   7.790  0.2143 -0.1357 -0.1225
 9201SOL     OW27780   1.281   7.061   3.462 -0.2879  0.7163 -0.2040
 9201SOL    HW127781   1.206   6.996   3.452 -1.0718  1.4363  0.8043
 9201SOL    HW227782   1.297   7.079   3.559  1.1286  0.6551 -0.4098
 9202SOL     OW27783   0.182   8.739   3.237 -0.7479  0.1550  0.4795
 9202SOL    HW127784   0.144   8.784   3.157 -1.1102 -2.1461 -0.7210
 9202SOL    HW227785   0.168   8.796   3.318 -3.1522  1.1730 -0.5862
 9203SOL     OW27786   2.639   8.436   0.163  0.2634 -1.6043  0.6653
 9203SOL    HW127787   2.679   8.356   0.117  1.5325 -1.5679  1.6535
 9203SOL    HW227788   2.706   8.475   0.226  0.0988  0.9171 -0.5731
 9204SOL     OW27789   2.237   4.343   3.690 -0.5360 -0.5691  0.2960
 9204SOL    HW127790   2.296   4.407   3.738  0.6073 -0.1026 -1.6048
 9204SOL    HW227791   2.176   4.394   3.629  0.4626 -1.2283 -1.3250
 9205SOL     OW27792   2.250   2.867   7.734  0.0594 -0.1968 -0.2106
 9205SOL    HW127793   2.180   2.876   7.663  1.0598 -1.1111 -1.3637
 9205SOL    HW227794   2.278   2.957   7.765 -1.6709  0.1848  0.3405
 9206SOL     OW27795   0.867   4.978   1.084 -0.0155  0.7377 -0.2999
 9206SOL    HW127796   0.913   4.920   1.017  0.3639  2.3453 -1.4916
 9206SOL    HW227797   0.774   4.999   1.053 -1.2082 -1.4407  1.4822
 9207SOL     OW27798   8.723   1.180   7.510  0.2308  0.0986 -0.0591
 9207SOL    HW127799   8.665   1.109   7.470 -0.0275 -0.7577  1.7527
 9207SOL    HW227800   8.666   1.248   7.554  0.5584  0.0556  0.4341
 9208SOL     OW27801   5.457   3.429   4.935  0.1128 -0.1875  0.5802
 9208SOL    HW127802   5.365   3.468   4.940  0.0308 -0.5085  1.6674
 9208SOL    HW227803   5.524   3.502   4.946  0.0130  0.0760 -0.3909
 9209SOL     OW27804   5.448   5.468   4.936  0.0584 -0.1277  0.3904
 9209SOL    HW127805   5.510   5.408   4.986  3.4552  2.3508 -0.4774
 9209SOL    HW227806   5.396   5.414   4.870  1.2361 -2.3839  1.2131
 9210SOL     OW27807   7.501   0.770   6.016 -0.4103  1.1062 -0.5098
 9210SOL    HW127808   7.450   0.724   5.943  0.8374 -2.1775  0.5151
 9210SOL    HW227809   7.438   0.810   6.082 -1.7824 -1.8324  0.1087
 9211SOL     OW27810   4.920   2.562   5.600 -0.4557  0.3243 -0.1668
 9211SOL    HW127811   4.843   2.516   5.555  1.3540 -0.1074 -3.0803
 9211SOL    HW227812   4.987   2.493   5.629  0.1017  0.8414 -0.2170
 9212SOL     OW27813   3.993   7.336   7.592 -0.4875  0.4123  0.1329
 9212SOL    HW127814   3.947   7.378   7.512 -0.5545  2.4957  1.1850
 9212SOL    HW227815   4.076   7.388   7.613 -0.0417 -0.6068  0.9393
 9213SOL     OW27816   1.353   0.568   1.826  0.1676 -0.5552  0.2503
 9213SOL    HW127817   1.259   0.561   1.793  1.0055 -0.5824 -2.3608
 9213SOL    HW227818   1.353   0.602   1.920 -2.3532  1.6370 -0.4239
 9214SOL     OW27819   3.674   5.731   0.221  0.2100  0.2008 -0.0280
 9214SOL    HW127820   3.727   5.803   0.177  1.0056  0.0205  0.6013
 9214SOL    HW227821   3.581   5.763   0.238  0.5392  1.0626  0.1797
 9215SOL     OW27822   3.155   3.947   4.103 -0.2582 -0.2859  0.5023
 9215SOL    HW127823   3.088   4.012   4.067 -0.1874 -1.3447 -1.7060
 9215SOL    HW227824   3.140   3.857   4.061  1.7123 -0.8851  0.9750
 9216SOL     OW27825   8.425   6.132   6.386  0.2738 -0.4240 -0.1267
 9216SOL    HW127826   8.453   6.073   6.310  1.0458  0.7579 -0.7819
 9216SOL    HW227827   8.503   6.184   6.419 -0.4692  0.5228  0.1811
 9217SOL     OW27828   8.773   3.427   0.125  0.2620  0.5262  0.1098
 9217SOL    HW127829   8.822   3.511   0.146  1.1316 -0.6390  3.1584
 9217SOL    HW227830   8.816   3.382   0.046 -0.7479  3.2254 -2.1448
 9218SOL     OW27831   4.837   8.427   2.485 -0.4793 -0.4370  0.0010
 9218SOL    HW127832   4.905   8.450   2.416 -1.3991 -0.5541 -0.9723
 9218SOL    HW227833   4.763   8.374   2.442 -0.5561 -1.4120  1.2878
 9219SOL     OW27834   7.474   2.425   8.729  0.7125 -0.4158 -0.2299
 9219SOL    HW127835   7.443   2.508   8.680  2.2308 -0.1186 -0.7257
 9219SOL    HW227836   7.417   2.348   8.701  0.8278 -0.0237 -1.6273
 9220SOL     OW27837   0.000   1.347   7.134 -0.7344 -0.3863 -0.2886
 9220SOL    HW127838   0.037   1.254   7.138  0.2149 -0.0280 -0.4875
 9220SOL    HW227839   0.007   1.390   7.224  0.1234 -0.0302 -0.5157
 9221SOL     OW27840   4.577   0.699   6.936  0.2597 -0.4050  0.5300
 9221SOL    HW127841   4.534   0.713   7.025  0.2616  0.1185  0.4533
 9221SOL    HW227842   4.518   0.737   6.864 -0.2333 -1.7343  0.1958
 9222SOL     OW27843   3.227   4.194   4.958 -0.0724  0.3519  0.1452
 9222SOL    HW127844   3.272   4.165   5.043  2.5017  1.6879 -0.6822
 9222SOL    HW227845   3.267   4.145   4.881 -1.0395  0.5666 -0.5116
 9223SOL     OW27846   1.708   3.449   7.364 -0.3561  0.4299  0.3971
 9223SOL    HW127847   1.766   3.377   7.325  1.1182  1.1570  1.1336
 9223SOL    HW227848   1.733   3.463   7.460 -0.6765  1.8589  0.2969
 9224SOL     OW27849   3.407   6.688   4.170 -0.0918 -0.0609  0.1398
 9224SOL    HW127850   3.343   6.746   4.222  0.3800  0.9402 -0.3723
 9224SOL    HW227851   3.417   6.724   4.077 -0.2540 -1.3331 -0.3913
 9225SOL     OW27852   6.431   6.281   3.193  0.0064 -0.0573 -0.1511
 9225SOL    HW127853   6.378   6.275   3.277 -0.2065  0.3268 -0.2563
 9225SOL    HW227854   6.529   6.287   3.216 -0.1422  2.1063  0.1817
 9226SOL     OW27855   3.849   1.711   0.909 -0.0970  0.3281  0.7214
 9226SOL    HW127856   3.904   1.754   0.837 -1.1157 -0.2986 -0.4566
 9226SOL    HW227857   3.882   1.742   0.999  1.0536  1.2897 -0.0031
 9227SOL     OW27858   0.881   1.352   4.168  0.2502 -0.0403  0.4641
 9227SOL    HW127859   0.891   1.278   4.101 -0.2246 -0.5744  0.9661
 9227SOL    HW227860   0.943   1.335   4.245  1.1343  0.8134 -0.0252
 9228SOL     OW27861   7.375   1.513   5.814 -0.9808 -0.2652 -0.4145
 9228SOL    HW127862   7.400   1.458   5.734  0.0694  1.0859 -1.0570
 9228SOL    HW227863   7.294   1.567   5.792 -2.1057 -1.5932  0.2689
 9229SOL     OW27864   4.857   0.460   3.051  0.0369  0.0612  0.6185
 9229SOL    HW127865   4.907   0.539   3.017  1.6827  0.1889  3.1420
 9229SOL    HW227866   4.769   0.489   3.088  0.0400  0.5071  0.2756
 9230SOL     OW27867   7.265   5.649   1.224  0.3954 -0.0605  0.4266
 9230SOL    HW127868   7.197   5.663   1.152  0.4658  2.2038  0.7282
 9230SOL    HW227869   7.352   5.622   1.183 -0.5331 -2.7362  0.0199
 9231SOL     OW27870   4.149   4.070   3.439 -0.1938 -0.1743  0.1161
 9231SOL    HW127871   4.176   4.162   3.410 -0.5619  0.6126  2.0381
 9231SOL    HW227872   4.213   4.003   3.404  1.2986  1.0633  0.3528
 9232SOL     OW27873   6.023   8.126   8.331 -0.4221  0.0003 -0.3417
 9232SOL    HW127874   6.052   8.162   8.242 -1.6925  0.2727 -0.6666
 9232SOL    HW227875   5.924   8.141   8.342 -0.5467 -1.3003  0.5058
 9233SOL     OW27876   5.636   0.238   0.805  0.2475 -0.3017 -0.8569
 9233SOL    HW127877   5.540   0.210   0.794 -0.4354  0.2486  2.5210
 9233SOL    HW227878   5.638   0.331   0.842  2.1585  0.0247 -1.7047
 9234SOL     OW27879   4.208   2.788   4.386 -0.3023 -0.5426 -0.5868
 9234SOL    HW127880   4.304   2.766   4.366 -0.4593 -1.3335 -0.5058
 9234SOL    HW227881   4.168   2.714   4.440 -0.9933 -0.2646 -0.7158
 9235SOL     OW27882   2.049   5.899   4.575  0.6743  0.3099  0.0545
 9235SOL    HW127883   2.072   5.871   4.482 -2.3548 -1.0502 -0.4131
 9235SOL    HW227884   2.019   5.995   4.575  0.2304  0.1714 -0.4615
 9236SOL     OW27885   3.895   4.083   4.828 -0.1052  0.0921  0.1520
 9236SOL    HW127886   3.864   4.089   4.733  0.4168  0.2568 -0.0128
 9236SOL    HW227887   3.820   4.051   4.886 -0.8010  1.1736 -0.1144
 9237SOL     OW27888   7.134   7.268   4.431 -0.1581  0.3031  0.5120
 9237SOL    HW127889   7.080   7.194   4.472 -1.4648  1.4294  0.8995
 9237SOL    HW227890   7.079   7.313   4.361  0.3783  1.3191  0.7370
 9238SOL     OW27891   4.485   6.538   6.315  0.4490  0.1314 -0.0117
 9238SOL    HW127892   4.532   6.626   6.308  1.9745 -0.7680 -1.7351
 9238SOL    HW227893   4.438   6.518   6.230 -0.5194 -0.3967  0.6270
 9239SOL     OW27894   5.518   5.056   5.945  0.4207 -0.3810  0.2829
 9239SOL    HW127895   5.564   5.104   5.871 -1.1737  0.4820 -0.1819
 9239SOL    HW227896   5.537   5.102   6.032 -0.2842  0.5117 -0.0269
 9240SOL     OW27897   7.774   3.501   7.925 -0.2357 -0.2044  0.2576
 9240SOL    HW127898   7.819   3.580   7.967  0.5109 -1.2208  1.4262
 9240SOL    HW227899   7.709   3.461   7.989  0.6150 -1.5315  0.3319
 9241SOL     OW27900   8.815   5.506   2.267 -0.1783  0.6336 -0.1988
 9241SOL    HW127901   8.885   5.466   2.326 -1.3940 -0.0452  0.8551
 9241SOL    HW227902   8.763   5.574   2.318 -1.8777 -0.6529 -0.1250
 9242SOL     OW27903   7.813   7.638   4.079  0.3212 -0.3678  0.5945
 9242SOL    HW127904   7.847   7.716   4.027 -0.3155  0.4839  1.4146
 9242SOL    HW227905   7.880   7.612   4.148  0.3705 -0.2878  0.5773
 9243SOL     OW27906   7.943   0.312   7.621 -0.3025  0.6518 -0.6857
 9243SOL    HW127907   7.849   0.318   7.655 -0.7047 -0.7152 -1.4764
 9243SOL    HW227908   7.980   0.404   7.608 -1.7233  1.2240 -0.8596
 9244SOL     OW27909   1.906   0.815   7.407 -0.3132 -0.1978 -0.3082
 9244SOL    HW127910   1.834   0.809   7.338 -0.5583  0.6849 -0.1344
 9244SOL    HW227911   1.887   0.891   7.469 -0.7365 -1.6868  1.4761
 9245SOL     OW27912   5.872   2.749   3.152  0.0420 -0.0593  0.6705
 9245SOL    HW127913   5.967   2.768   3.178  0.6718 -0.7027 -1.0401
 9245SOL    HW227914   5.831   2.689   3.221  0.8827  0.1801  1.4104
 9246SOL     OW27915   2.891   0.725   1.083 -0.6711  0.3442 -0.2839
 9246SOL    HW127916   2.952   0.679   1.019 -0.5355  0.5859 -0.3317
 9246SOL    HW227917   2.864   0.814   1.046 -0.6455  0.4569 -0.0369
 9247SOL     OW27918   1.393   0.956   5.525 -0.4687 -0.0759  0.6210
 9247SOL    HW127919   1.487   0.965   5.559  0.1007  0.7551 -1.0672
 9247SOL    HW227920   1.357   1.046   5.503  0.7361 -0.5689 -4.7423
 9248SOL     OW27921   4.984   2.563   8.716  0.0350  0.4357 -0.6574
 9248SOL    HW127922   4.902   2.615   8.693 -0.9010 -0.2043  0.9844
 9248SOL    HW227923   4.976   2.470   8.679  0.1591  0.4739 -0.7776
 9249SOL     OW27924   2.778   0.346   5.009  0.2159  0.2372 -0.4811
 9249SOL    HW127925   2.846   0.411   4.974  1.2549 -0.4333  0.2379
 9249SOL    HW227926   2.712   0.394   5.067 -0.6054  1.0835 -2.0564
 9250SOL     OW27927   1.826   3.084   2.318 -0.0441  0.0640 -1.1696
 9250SOL    HW127928   1.903   3.025   2.295  1.5205  1.7952 -0.6663
 9250SOL    HW227929   1.817   3.155   2.248  1.7567  2.5477  0.9180
 9251SOL     OW27930   6.694   8.748   0.192 -0.1500 -0.0209  0.1653
 9251SOL    HW127931   6.746   8.831   0.216  0.5686 -0.6284  0.7612
 9251SOL    HW227932   6.656   8.708   0.276  1.7902 -1.7806  0.2701
 9252SOL     OW27933   8.114   5.519   1.783 -0.0396 -0.1117 -0.1195
 9252SOL    HW127934   8.083   5.536   1.876  0.9764  0.4390  0.1331
 9252SOL    HW227935   8.178   5.591   1.755  0.2630 -0.6850 -0.9628
 9253SOL     OW27936   2.526   8.064   1.532  0.4499  0.2237  0.7971
 9253SOL    HW127937   2.492   7.984   1.482  1.7667  0.1729 -0.0727
 9253SOL    HW227938   2.499   8.148   1.484  0.4602  0.2386  0.8173
 9254SOL     OW27939   3.917   7.324   3.476  0.2047  0.4029  0.2548
 9254SOL    HW127940   3.910   7.419   3.446 -0.7470  0.5216  0.7949
 9254SOL    HW227941   3.905   7.319   3.575 -0.8331 -0.3639  0.1196
 9255SOL     OW27942   3.719   8.598   0.227  0.2586 -0.3307  0.3861
 9255SOL    HW127943   3.701   8.660   0.303 -0.1540 -1.2196  1.0218
 9255SOL    HW227944   3.660   8.518   0.234 -0.3153 -0.0899 -1.2825
 9256SOL     OW27945   1.325   2.379   7.113 -0.0667 -0.3682  0.4723
 9256SOL    HW127946   1.345   2.329   7.197 -2.4489  0.5619  1.7067
 9256SOL    HW227947   1.288   2.317   7.045  1.4208 -1.0462  0.2520
 9257SOL     OW27948   5.180   2.796   5.074  0.3832 -0.4595 -1.2735
 9257SOL    HW127949   5.211   2.882   5.034 -2.5965  1.8054  0.9075
 9257SOL    HW227950   5.236   2.774   5.154  1.1026 -0.5726 -1.7939
 9258SOL     OW27951   3.371   6.515   8.593 -0.5185  0.0862 -0.2972
 9258SOL    HW127952   3.357   6.613   8.587  0.1774  0.2612  0.6883
 9258SOL    HW227953   3.466   6.493   8.568 -1.2275 -0.6012 -2.6860
 9259SOL     OW27954   3.220   8.735   3.403 -0.1979 -0.1983  0.3744
 9259SOL    HW127955   3.310   8.692   3.417 -0.3101 -0.0762  1.5925
 9259SOL    HW227956   3.214   8.818   3.458 -0.7123  0.3248 -0.4504
 9260SOL     OW27957   6.779   4.568   6.430 -0.2275 -0.4734  0.4021
 9260SOL    HW127958   6.793   4.503   6.356 -0.6524 -0.4807  0.3283
 9260SOL    HW227959   6.710   4.534   6.494  1.4739 -1.3685  1.8727
 9261SOL     OW27960   6.661   5.611   8.451  0.1405 -0.2658 -0.2053
 9261SOL    HW127961   6.596   5.595   8.377  1.1452 -2.6119 -0.6858
 9261SOL    HW227962   6.688   5.707   8.452 -2.8213  0.6473 -0.3480
 9262SOL     OW27963   3.047   3.775   3.738  0.2339 -0.1384 -0.2803
 9262SOL    HW127964   3.083   3.791   3.830 -2.3262  0.0335  0.7732
 9262SOL    HW227965   3.108   3.817   3.671  3.1759 -1.8747  1.1219
 9263SOL     OW27966   0.900   2.325   6.788  0.1212  0.1878  0.7092
 9263SOL    HW127967   0.913   2.400   6.854  0.7676 -0.9167  1.8841
 9263SOL    HW227968   0.904   2.238   6.836 -0.7085 -0.6145 -0.6308
 9264SOL     OW27969   1.941   6.567   7.369  0.5072  0.0829 -0.3378
 9264SOL    HW127970   1.962   6.657   7.332  3.0345  0.0138  0.7333
 9264SOL    HW227971   1.845   6.545   7.351 -0.0368  2.7285 -1.0841
 9265SOL     OW27972   3.428   1.939   5.058  0.0707  0.1510 -0.2797
 9265SOL    HW127973   3.344   1.911   5.011  0.5705 -0.8036 -0.6354
 9265SOL    HW227974   3.437   1.888   5.143  0.8964 -0.6830 -0.8437
 9266SOL     OW27975   3.431   4.006   4.040  0.2147  0.1399  0.2972
 9266SOL    HW127976   3.336   4.016   4.067  0.0478  1.6540 -0.7240
 9266SOL    HW227977   3.451   4.069   3.965  1.4503 -1.7044 -1.0044
 9267SOL     OW27978   2.198   5.210   7.046  0.1329 -0.6672 -0.4301
 9267SOL    HW127979   2.223   5.305   7.026  0.3938 -0.1423  2.1239
 9267SOL    HW227980   2.279   5.161   7.079 -0.4799 -1.1569  0.3660
 9268SOL     OW27981   8.159   7.981   7.504  0.1446  0.1898 -0.1844
 9268SOL    HW127982   8.258   7.969   7.512  0.2868 -0.1998 -2.0908
 9268SOL    HW227983   8.137   8.018   7.414 -1.3862  1.3754  0.6205
 9269SOL     OW27984   2.667   6.784   8.072  0.1797  0.2947 -0.1337
 9269SOL    HW127985   2.595   6.776   8.141 -1.0009 -0.8276 -1.4225
 9269SOL    HW227986   2.709   6.875   8.078  0.1002  0.2386  2.0032
 9270SOL     OW27987   6.583   0.712   6.771  0.9096 -0.0858  0.0744
 9270SOL    HW127988   6.603   0.810   6.774  1.9828 -0.2941  1.6382
 9270SOL    HW227989   6.492   0.697   6.735 -0.3170  1.6935  2.1696
 9271SOL     OW27990   6.830   2.886   4.114 -0.0399  0.0602 -0.4806
 9271SOL    HW127991   6.900   2.944   4.073 -0.0851  0.2094 -0.3442
 9271SOL    HW227992   6.770   2.851   4.042  0.2906 -0.2293 -0.6242
 9272SOL     OW27993   0.229   6.863   2.364  0.1919 -0.2160 -0.2004
 9272SOL    HW127994   0.307   6.824   2.414 -0.4863 -0.3359  0.8036
 9272SOL    HW227995   0.154   6.797   2.364 -0.3380  0.3797 -0.0634
 9273SOL     OW27996   8.162   1.489   3.036  0.0877  0.3895  0.0747
 9273SOL    HW127997   8.227   1.461   2.965 -0.5922  0.5649 -0.6262
 9273SOL    HW227998   8.088   1.422   3.042  0.0789  0.4384  0.5413
 9274SOL     OW27999   1.709   7.993   5.493  0.1831  0.2973 -0.5687
 9274SOL    HW128000   1.777   7.942   5.440 -0.7423 -0.6350 -0.8855
 9274SOL    HW228001   1.617   7.959   5.471 -0.3181  0.8656  0.5815
 9275SOL     OW28002   1.009   2.074   5.841 -0.4743 -0.8295  0.3931
 9275SOL    HW128003   0.975   2.037   5.927 -0.6057 -1.1984  0.1852
 9275SOL    HW228004   1.013   2.001   5.772  1.8456 -1.0633  0.7132
 9276SOL     OW28005   6.315   3.057   2.090 -0.0337  0.0438 -0.6479
 9276SOL    HW128006   6.307   3.150   2.126 -0.7877 -0.4766  0.6083
 9276SOL    HW228007   6.246   3.043   2.019 -1.5177 -0.2555  0.8012
 9277SOL     OW28008   6.203   4.088   3.883 -0.0115 -0.1601  0.0808
 9277SOL    HW128009   6.230   4.163   3.823 -0.7057 -0.1527 -0.2333
 9277SOL    HW228010   6.271   4.077   3.956  1.1803 -0.5696 -1.0540
 9278SOL     OW28011   7.500   6.346   4.422 -0.2470  0.1076  0.3178
 9278SOL    HW128012   7.466   6.280   4.490  2.1639 -1.8078 -0.1846
 9278SOL    HW228013   7.492   6.306   4.330  0.8250  0.6728 -0.0381
 9279SOL     OW28014   7.777   1.040   3.097  0.4084 -0.1399 -0.4128
 9279SOL    HW128015   7.763   0.969   3.166  1.3628  0.3421  0.2949
 9279SOL    HW228016   7.718   1.118   3.117 -0.3414 -0.5492 -0.9595
 9280SOL     OW28017   3.671   6.353   8.805  0.2041  0.3546  0.3921
 9280SOL    HW128018   3.655   6.326   8.900 -0.3010 -0.1907  0.1596
 9280SOL    HW228019   3.728   6.285   8.760  0.4088  0.5928  0.2925
 9281SOL     OW28020   4.682   5.762   3.744 -0.1610  0.0981  0.5195
 9281SOL    HW128021   4.750   5.746   3.816 -0.1624 -1.6230  0.1701
 9281SOL    HW228022   4.696   5.853   3.705  1.8140 -0.1380  0.5967
 9282SOL     OW28023   2.955   5.136   2.908 -0.1713  0.2277 -0.2591
 9282SOL    HW128024   2.990   5.219   2.950 -1.9549  2.0113 -2.1119
 9282SOL    HW228025   3.021   5.103   2.840  0.0528  0.7962 -0.3223
 9283SOL     OW28026   1.697   0.439   7.931  0.1159 -0.3935 -0.1751
 9283SOL    HW128027   1.746   0.495   7.998  0.7477  0.7775 -1.5650
 9283SOL    HW228028   1.756   0.364   7.901  1.7494  1.8137 -2.8882
 9284SOL     OW28029   3.240   2.642   0.897 -0.4408  0.2003  0.0422
 9284SOL    HW128030   3.338   2.636   0.916  0.0020  0.3939 -1.9767
 9284SOL    HW228031   3.188   2.627   0.982  1.3112 -0.1208  1.0956
 9285SOL     OW28032   1.418   1.085   3.630  0.4413 -0.4435 -0.0716
 9285SOL    HW128033   1.320   1.070   3.616  0.2475  0.6940  0.0010
 9285SOL    HW228034   1.451   1.152   3.563  1.3659 -1.4670 -0.6699
 9286SOL     OW28035   1.529   6.143   5.801 -0.0204  0.3782 -0.6767
 9286SOL    HW128036   1.545   6.055   5.846  1.1816 -0.3408 -2.4120
 9286SOL    HW228037   1.566   6.216   5.857  0.3027 -0.3667  0.1097
 9287SOL     OW28038   0.987   6.596   2.822  0.2633  0.1978  0.5108
 9287SOL    HW128039   1.023   6.629   2.735  0.1034 -1.1746 -0.0947
 9287SOL    HW228040   0.889   6.581   2.815  0.2754 -0.0781  0.8786
 9288SOL     OW28041   5.655   1.482   3.248  0.2793 -0.1294  0.3337
 9288SOL    HW128042   5.613   1.392   3.266  1.2528 -0.6152  0.2417
 9288SOL    HW228043   5.671   1.529   3.335  0.0509 -0.1796  0.4029
 9289SOL     OW28044   3.861   8.193   7.543  0.3787  0.4405 -0.2985
 9289SOL    HW128045   3.861   8.103   7.501  0.4412  1.5145 -2.8302
 9289SOL    HW228046   3.954   8.215   7.575  0.6384  0.0645 -0.7794
 9290SOL     OW28047   3.491   4.052   8.616  0.2909 -0.2120  0.4986
 9290SOL    HW128048   3.530   4.120   8.678  2.4745  0.4257 -1.4330
 9290SOL    HW228049   3.479   3.966   8.664 -0.2981  0.8850  2.3872
 9291SOL     OW28050   2.307   6.114   6.115  0.1749 -0.1825 -0.2068
 9291SOL    HW128051   2.379   6.169   6.158 -0.0715  1.7287 -2.0685
 9291SOL    HW228052   2.248   6.075   6.185  2.4595 -1.0632  1.3428
 9292SOL     OW28053   4.673   0.732   4.442 -0.3341  0.7969 -0.0537
 9292SOL    HW128054   4.627   0.820   4.444 -3.0171 -0.5033  1.1010
 9292SOL    HW228055   4.626   0.668   4.503 -0.6991 -2.4047 -3.2920
 9293SOL     OW28056   4.994   0.275   3.230  1.0351  0.1276  0.0874
 9293SOL    HW128057   4.933   0.196   3.240  2.6404 -1.1771 -0.1392
 9293SOL    HW228058   4.956   0.337   3.162  0.0776 -0.7639 -0.2232
 9294SOL     OW28059   1.771   8.826   6.452 -0.4817  0.1022  0.2281
 9294SOL    HW128060   1.739   8.811   6.546 -0.2529 -0.5089  0.2133
 9294SOL    HW228061   1.699   8.797   6.388 -0.8849  1.1083  0.2165
 9295SOL     OW28062   0.567   8.406   1.648  0.0745 -0.0606  0.6094
 9295SOL    HW128063   0.664   8.408   1.671 -0.3534 -1.6692  2.8956
 9295SOL    HW228064   0.556   8.420   1.549  2.7112 -0.9900  0.1043
 9296SOL     OW28065   3.073   1.387   6.475 -0.1705 -1.0127 -0.0473
 9296SOL    HW128066   3.081   1.427   6.383  2.4062  0.6763  0.7974
 9296SOL    HW228067   3.137   1.311   6.483 -0.6742 -1.4086  0.2446
 9297SOL     OW28068   0.140   7.817   4.848 -0.3519 -0.1324 -0.1088
 9297SOL    HW128069   0.190   7.893   4.808 -0.3440 -0.7697 -1.3546
 9297SOL    HW228070   0.057   7.851   4.894  1.0515  0.9168  1.8113
 9298SOL     OW28071   7.791   5.395   2.728 -0.1516  0.3797 -0.1884
 9298SOL    HW128072   7.796   5.404   2.827 -0.4225 -1.8837  0.1034
 9298SOL    HW228073   7.814   5.301   2.702 -0.8037  0.7232 -2.2184
 9299SOL     OW28074   7.003   4.144   6.820  0.1357  0.0101 -0.1733
 9299SOL    HW128075   7.041   4.062   6.863  1.5588  0.4723 -0.5128
 9299SOL    HW228076   7.013   4.222   6.882 -2.8497 -0.3391  0.9222
 9300SOL     OW28077   5.800   1.944   0.814 -0.1666 -0.1987  0.1703
 9300SOL    HW128078   5.734   1.880   0.774 -2.5434  1.7879  0.7200
 9300SOL    HW228079   5.768   1.972   0.905  0.6370  1.9429 -0.1533
 9301SOL     OW28080   8.452   3.314   4.634 -0.1110 -0.1725 -0.6958
 9301SOL    HW128081   8.437   3.412   4.631  1.7718  0.1920  0.5224
 9301SOL    HW228082   8.507   3.286   4.555  0.9670  0.0893 -0.0560
 9302SOL     OW28083   8.644   7.045   7.448  0.2960 -0.3475 -0.6933
 9302SOL    HW128084   8.697   6.961   7.456  0.9547 -0.1336 -2.3009
 9302SOL    HW228085   8.701   7.117   7.408 -0.6698  0.4455 -0.6998
 9303SOL     OW28086   1.778   6.728   1.350 -0.0692 -0.3274 -0.6083
 9303SOL    HW128087   1.869   6.736   1.391 -0.1153  0.9478 -0.7044
 9303SOL    HW228088   1.710   6.713   1.422 -0.0206  0.8279 -0.3012
 9304SOL     OW28089   0.478   6.128   5.036  0.3893 -0.3569  0.0438
 9304SOL    HW128090   0.416   6.189   4.986 -0.6213  0.8100  2.5457
 9304SOL    HW228091   0.443   6.034   5.031 -0.9104  0.0880  0.3452
 9305SOL     OW28092   6.126   7.406   8.695 -0.3266  0.0385  0.1555
 9305SOL    HW128093   6.191   7.481   8.683  0.1644 -0.1646  1.4006
 9305SOL    HW228094   6.042   7.426   8.643  0.9519 -0.0295 -2.0505
 9306SOL     OW28095   4.038   7.264   8.428 -0.1946  0.6115 -0.0653
 9306SOL    HW128096   4.035   7.355   8.469 -3.3290  1.4489 -1.8089
 9306SOL    HW228097   3.995   7.198   8.490  0.7600  0.5874  0.5841
 9307SOL     OW28098   3.019   1.406   6.984 -0.1297 -0.1942 -0.2604
 9307SOL    HW128099   2.944   1.352   7.023 -1.0545  0.1191 -1.5326
 9307SOL    HW228100   3.097   1.346   6.965 -0.0868 -0.5485  0.9505
 9308SOL     OW28101   8.773   0.244   7.362  0.1298  0.7496  0.2064
 9308SOL    HW128102   8.807   0.301   7.288  1.0902 -0.5655 -0.4111
 9308SOL    HW228103   8.698   0.291   7.409  1.1076  2.6492 -0.0234
 9309SOL     OW28104   2.653   8.760   4.838  0.6304  0.1724  0.1568
 9309SOL    HW128105   2.682   8.697   4.766 -2.3328 -1.0156 -0.1408
 9309SOL    HW228106   2.683   8.726   4.927  1.0061 -0.4291 -0.1925
 9310SOL     OW28107   3.981   4.697   7.639  0.2350  0.2735 -0.0769
 9310SOL    HW128108   3.908   4.764   7.634 -0.2378 -0.2100  0.2553
 9310SOL    HW228109   4.053   4.730   7.700 -0.5866 -0.0580  1.1223
 9311SOL     OW28110   5.557   7.012   3.555  0.0148 -0.6266  0.3147
 9311SOL    HW128111   5.521   7.105   3.560 -0.4508 -0.7834 -0.0419
 9311SOL    HW228112   5.482   6.949   3.535  0.5322 -0.9209 -0.7509
 9312SOL     OW28113   8.467   1.395   3.929 -0.4581 -0.3646 -0.2539
 9312SOL    HW128114   8.428   1.351   3.848  2.4373 -0.2229 -1.8312
 9312SOL    HW228115   8.530   1.467   3.902  0.6820 -0.3539  2.1236
 9313SOL     OW28116   6.232   8.122   1.377 -0.1369  0.2840 -0.2898
 9313SOL    HW128117   6.221   8.105   1.279 -1.2309  0.2164 -0.1756
 9313SOL    HW228118   6.197   8.043   1.428  0.9574  0.0737  0.1541
 9314SOL     OW28119   0.999   5.238   7.849  0.6653  0.6282  0.8643
 9314SOL    HW128120   0.921   5.288   7.887  0.9858  1.4418  0.4701
 9314SOL    HW228121   1.049   5.297   7.786  1.9849  0.3428  1.5966
 9315SOL     OW28122   8.699   1.648   8.611 -0.4325  0.2869 -0.1924
 9315SOL    HW128123   8.645   1.571   8.645 -1.3191  0.9531 -0.0484
 9315SOL    HW228124   8.676   1.665   8.515  0.4676 -0.2194 -0.5089
 9316SOL     OW28125   7.267   8.047   5.223 -0.6399  0.5583 -0.4196
 9316SOL    HW128126   7.345   8.058   5.284 -0.3574 -0.3951 -0.5954
 9316SOL    HW228127   7.182   8.046   5.277 -0.4297  0.2668 -0.0898
 9317SOL     OW28128   1.455   1.897   7.579  0.3002 -0.0131  0.3722
 9317SOL    HW128129   1.540   1.844   7.588 -0.3397 -1.1916 -0.2564
 9317SOL    HW228130   1.399   1.881   7.660 -0.0174 -0.5488  0.0536
 9318SOL     OW28131   8.138   7.449   1.699  0.2958 -0.3798  0.1441
 9318SOL    HW128132   8.132   7.376   1.630 -0.7095  0.3591 -0.5631
 9318SOL    HW228133   8.150   7.407   1.789  2.2088 -1.3542 -0.4986
 9319SOL     OW28134   7.379   5.274   0.723  0.0608 -0.0510  0.1219
 9319SOL    HW128135   7.446   5.317   0.785 -1.2418  0.9923  0.8564
 9319SOL    HW228136   7.289   5.316   0.737 -0.3002  0.1536 -2.4491
 9320SOL     OW28137   1.849   4.108   5.656  0.0172  0.0039  0.2164
 9320SOL    HW128138   1.794   4.046   5.599  2.8047 -1.8118 -0.7189
 9320SOL    HW228139   1.852   4.073   5.749  0.7105 -0.7081 -0.0625
 9321SOL     OW28140   6.719   5.208   4.972 -0.0466  0.4403  0.3724
 9321SOL    HW128141   6.743   5.164   5.059  1.6011  2.4915  1.0264
 9321SOL    HW228142   6.800   5.248   4.931 -1.3141  2.1700 -0.5913
 9322SOL     OW28143   1.607   1.636   4.765 -0.8596  0.1847 -0.1797
 9322SOL    HW128144   1.684   1.638   4.701 -0.4781 -1.5526  0.1861
 9322SOL    HW228145   1.542   1.708   4.741 -0.5736 -0.2111 -2.3329
 9323SOL     OW28146   2.028   8.024   7.660 -0.1398 -1.0454 -0.3466
 9323SOL    HW128147   2.085   7.965   7.603  0.2344 -1.6833  0.6449
 9323SOL    HW228148   1.951   7.971   7.696 -0.8202 -0.4448 -0.8814
 9324SOL     OW28149   8.184   4.745   1.946  0.5572 -0.3267  0.1549
 9324SOL    HW128150   8.264   4.760   2.004  0.2882 -0.4361  0.5560
 9324SOL    HW228151   8.105   4.794   1.983  0.1270 -1.2160  0.4569
 9325SOL     OW28152   6.199   2.724   4.638 -0.0293  0.2509 -0.2423
 9325SOL    HW128153   6.102   2.748   4.641  0.1710  1.0676 -0.0567
 9325SOL    HW228154   6.222   2.670   4.718 -0.2734  0.2763 -0.1522
 9326SOL     OW28155   8.310   8.501   1.098  0.4687  0.6185  0.8231
 9326SOL    HW128156   8.382   8.479   1.163  1.5270 -2.2161 -1.1339
 9326SOL    HW228157   8.328   8.455   1.011 -1.4966  3.2799 -1.1572
 9327SOL     OW28158   8.162   0.963   5.937  0.9234  0.5666  0.4424
 9327SOL    HW128159   8.249   0.979   5.983  0.9760  0.6354  0.3203
 9327SOL    HW228160   8.119   0.881   5.975  1.5767 -0.1240 -0.2685
 9328SOL     OW28161   4.359   1.061   0.622  0.3059  0.3425  0.4553
 9328SOL    HW128162   4.287   1.045   0.689  1.2642 -0.9768  1.2277
 9328SOL    HW228163   4.438   1.003   0.643  1.1536  0.8780 -1.0462
 9329SOL     OW28164   1.408   6.278   6.115  0.3232 -0.2901 -0.5560
 9329SOL    HW128165   1.426   6.198   6.172  0.0927 -0.2343 -0.4052
 9329SOL    HW228166   1.317   6.270   6.074 -0.3321  0.6094  0.6645
 9330SOL     OW28167   0.058   4.964   4.987  0.1864  0.2603 -0.2723
 9330SOL    HW128168   0.040   4.998   4.894  2.6151 -1.8446 -1.6554
 9330SOL    HW228169   0.155   4.977   5.008  0.6222 -3.0007  0.2198
 9331SOL     OW28170   7.007   6.093   5.450 -0.0315 -0.3274  0.2377
 9331SOL    HW128171   7.067   6.029   5.497  0.2345 -0.2551 -0.0016
 9331SOL    HW228172   6.993   6.174   5.508  1.4866  0.4318 -0.3902
 9332SOL     OW28173   7.624   3.478   5.220  0.3357 -0.1827  0.2232
 9332SOL    HW128174   7.577   3.566   5.219 -0.6368 -0.6926 -0.9064
 9332SOL    HW228175   7.684   3.474   5.300  2.2457  2.4272 -0.9006
 9333SOL     OW28176   3.759   1.610   7.473  0.2809 -0.4672 -0.2329
 9333SOL    HW128177   3.819   1.616   7.393 -0.1369 -3.3252 -0.8653
 9333SOL    HW228178   3.664   1.610   7.442 -0.1459  2.8603  0.6847
 9334SOL     OW28179   2.556   5.330   8.252  0.3832 -0.5872 -0.1720
 9334SOL    HW128180   2.598   5.312   8.340  0.7545 -2.9206 -0.7561
 9334SOL    HW228181   2.600   5.410   8.210  0.6297  0.1644  1.4549
 9335SOL     OW28182   2.853   4.109   0.679 -0.2118  0.3782  0.1346
 9335SOL    HW128183   2.797   4.047   0.734  1.1707 -1.5179 -0.4818
 9335SOL    HW228184   2.836   4.092   0.582 -1.1201  2.2663 -0.0776
 9336SOL     OW28185   8.770   5.785   1.382 -0.7576  0.6233 -0.3517
 9336SOL    HW128186   8.826   5.793   1.300 -0.2945 -0.1341 -0.1216
 9336SOL    HW228187   8.820   5.825   1.460 -1.4661  1.9323 -0.5470
 9337SOL     OW28188   3.047   4.590   3.393  0.0639  0.6238  0.7245
 9337SOL    HW128189   3.095   4.678   3.398 -0.2895  0.7627  2.7968
 9337SOL    HW228190   3.114   4.516   3.387  0.5182  0.8907  2.1644
 9338SOL     OW28191   5.141   4.177   6.155 -0.0287 -0.1182 -0.1376
 9338SOL    HW128192   5.139   4.198   6.057 -1.0556 -0.7314 -0.2572
 9338SOL    HW228193   5.192   4.092   6.169  1.8037  0.9500  0.0836
 9339SOL     OW28194   7.366   6.138   3.740  0.4883  0.2705  0.2626
 9339SOL    HW128195   7.310   6.138   3.823 -0.3708  2.0198 -0.2708
 9339SOL    HW228196   7.306   6.142   3.659  1.3472  0.6772 -0.3719
 9340SOL     OW28197   4.324   3.990   4.610 -0.3535  0.5638  0.0363
 9340SOL    HW128198   4.353   4.034   4.526 -0.0690  1.4173  0.5732
 9340SOL    HW228199   4.329   3.890   4.599  4.0860  0.5534  0.4477
 9341SOL     OW28200   1.230   3.634   7.307  0.3766  0.1036  0.2275
 9341SOL    HW128201   1.209   3.537   7.301 -0.2769  0.0606  2.2812
 9341SOL    HW228202   1.322   3.650   7.271  0.1142 -1.0928 -1.0497
 9342SOL     OW28203   7.527   4.647   1.434  0.3030 -0.0523 -0.0708
 9342SOL    HW128204   7.570   4.638   1.524  1.5961  0.4104 -0.6122
 9342SOL    HW228205   7.546   4.739   1.398 -0.3633 -0.1669 -0.7290
 9343SOL     OW28206   7.088   3.412   1.613 -0.4725  0.0795  0.0161
 9343SOL    HW128207   7.116   3.489   1.670  1.2644 -1.1276  0.8759
 9343SOL    HW228208   7.002   3.374   1.648  0.1452 -0.1437  1.3409
 9344SOL     OW28209   3.314   7.397   4.656  0.1468  0.0431  0.4735
 9344SOL    HW128210   3.362   7.396   4.744 -0.8161 -1.2330  1.0375
 9344SOL    HW228211   3.215   7.406   4.673  0.1102  2.7094 -0.6475
 9345SOL     OW28212   0.276   1.344   1.347  0.2159  0.2139 -0.3418
 9345SOL    HW128213   0.185   1.341   1.387 -0.0343  1.2230 -0.8033
 9345SOL    HW228214   0.277   1.295   1.260 -0.8800  3.1069 -2.1634
 9346SOL     OW28215   3.466   0.398   1.373  0.3601 -0.0137  0.4109
 9346SOL    HW128216   3.407   0.397   1.453  0.1418 -0.2293  0.2481
 9346SOL    HW228217   3.494   0.492   1.355 -1.8071  0.4758 -0.8586
 9347SOL     OW28218   7.937   2.979   1.192 -0.1945  0.4265  0.7144
 9347SOL    HW128219   7.994   3.016   1.265 -0.2619  0.2661  0.8489
 9347SOL    HW228220   7.975   2.892   1.161  0.0916  0.7141  0.2420
 9348SOL     OW28221   5.929   8.714   3.287 -0.3524 -0.5102 -0.1440
 9348SOL    HW128222   5.965   8.801   3.256 -0.7131 -0.7352 -1.2316
 9348SOL    HW228223   5.906   8.720   3.384  1.3401  0.0282  0.2432
 9349SOL     OW28224   2.546   1.648   2.389  0.2242  0.4529 -0.3294
 9349SOL    HW128225   2.474   1.644   2.457  2.1618 -1.0697  1.7673
 9349SOL    HW228226   2.545   1.738   2.345 -1.5024  1.2496  1.2196
 9350SOL     OW28227   5.745   1.796   4.005  0.1232 -0.2811  0.1361
 9350SOL    HW128228   5.654   1.821   3.970  0.3665 -0.3098 -0.5366
 9350SOL    HW228229   5.744   1.700   4.033 -0.3343 -0.0041  1.1014
 9351SOL     OW28230   2.366   5.529   6.575  0.2161  0.3032 -0.3329
 9351SOL    HW128231   2.304   5.465   6.529  1.1595 -1.1432  0.3202
 9351SOL    HW228232   2.354   5.621   6.537  1.1243 -0.8236 -3.6787
 9352SOL     OW28233   6.339   7.420   2.782 -0.3125 -0.3078  0.0016
 9352SOL    HW128234   6.376   7.499   2.732  0.8208 -0.7751  0.0550
 9352SOL    HW228235   6.391   7.408   2.867 -0.5760 -1.0231  0.0662
 9353SOL     OW28236   5.349   8.622   2.437 -0.2535  0.2879  0.0505
 9353SOL    HW128237   5.426   8.676   2.471 -1.1835  1.3852  0.4717
 9353SOL    HW228238   5.297   8.676   2.371 -1.3343 -0.0072  0.6396
 9354SOL     OW28239   0.737   0.283   5.591  0.0893  0.4876  0.1651
 9354SOL    HW128240   0.704   0.372   5.560 -2.4965 -1.1602 -2.3534
 9354SOL    HW228241   0.665   0.214   5.577  3.1341 -2.6691 -1.4338
 9355SOL     OW28242   6.650   4.568   3.248  0.0369 -0.0186 -0.0475
 9355SOL    HW128243   6.697   4.645   3.206 -0.8625  0.3840 -0.3357
 9355SOL    HW228244   6.701   4.483   3.229  0.1445  0.2749 -1.1580
 9356SOL     OW28245   2.309   3.750   1.802  0.3493  0.0002 -0.1098
 9356SOL    HW128246   2.339   3.695   1.880  0.2605 -0.0588 -0.1182
 9356SOL    HW228247   2.381   3.749   1.732 -0.5385 -1.9156 -1.0593
 9357SOL     OW28248   7.941   8.275   5.944 -0.3178 -0.2009 -0.4141
 9357SOL    HW128249   7.890   8.350   5.901 -0.5656  0.2610  0.6395
 9357SOL    HW228250   7.951   8.200   5.879 -1.1153  0.2662 -1.1051
 9358SOL     OW28251   6.393   4.976   7.444  0.0932  0.6663  0.2690
 9358SOL    HW128252   6.394   4.933   7.353 -0.4179  0.5037  0.3337
 9358SOL    HW228253   6.387   5.075   7.434 -0.6452  0.6149  0.1188
 9359SOL     OW28254   3.690   1.033   3.362 -0.0481  0.2223 -0.1670
 9359SOL    HW128255   3.749   0.994   3.433  0.0511 -1.8748 -1.3125
 9359SOL    HW228256   3.744   1.048   3.279 -1.0296 -1.6048 -1.1935
 9360SOL     OW28257   6.955   0.711   3.254  0.4282 -0.5928 -0.1994
 9360SOL    HW128258   6.992   0.760   3.333  1.5113 -1.4410 -0.1557
 9360SOL    HW228259   6.925   0.777   3.185  2.5912  0.1685 -0.4822
 9361SOL     OW28260   2.359   7.466   6.406  0.3747 -0.3747 -0.3941
 9361SOL    HW128261   2.287   7.534   6.392 -0.9551 -1.5658  0.4011
 9361SOL    HW228262   2.347   7.390   6.342  0.6666 -0.7939  0.0422
 9362SOL     OW28263   5.598   3.551   2.758 -0.7297 -0.1399  0.1548
 9362SOL    HW128264   5.511   3.567   2.711  0.4835  0.8813 -1.9201
 9362SOL    HW228265   5.609   3.453   2.774 -0.5216 -0.8334 -3.3556
 9363SOL     OW28266   5.335   2.528   2.978  0.5044  0.2451  0.7293
 9363SOL    HW128267   5.382   2.540   3.066  0.1035  0.1432  0.9597
 9363SOL    HW228268   5.400   2.494   2.910  1.1302  1.5745  0.6382
 9364SOL     OW28269   3.646   1.368   8.635 -0.5816  0.7848  0.2265
 9364SOL    HW128270   3.629   1.270   8.646 -0.3856  0.4373 -1.9925
 9364SOL    HW228271   3.662   1.388   8.538  1.6034  2.6610  0.8818
 9365SOL     OW28272   0.568   4.062   5.194 -0.3322  0.0199  0.4097
 9365SOL    HW128273   0.505   4.132   5.227 -2.3330 -1.4013 -0.1881
 9365SOL    HW228274   0.526   4.013   5.117  2.1766  0.0255 -1.0554
 9366SOL     OW28275   1.817   2.519   2.982 -0.1566  0.2207 -0.0935
 9366SOL    HW128276   1.789   2.549   2.891  0.9869 -0.2517 -0.6204
 9366SOL    HW228277   1.917   2.523   2.989 -0.1627 -0.7770  0.7796
 9367SOL     OW28278   5.668   8.829   7.341 -0.3206  0.1566  0.5922
 9367SOL    HW128279   5.760   8.795   7.365 -0.9008 -1.1749  1.0270
 9367SOL    HW228280   5.612   8.834   7.424 -1.1209 -0.5887  0.1029
 9368SOL     OW28281   2.408   8.305   5.575  0.1177 -0.3860  0.4345
 9368SOL    HW128282   2.478   8.374   5.556 -1.1597  1.3276  1.6908
 9368SOL    HW228283   2.364   8.278   5.489 -0.3668  1.5025  0.0497
 9369SOL     OW28284   5.264   5.080   2.074  0.0134  0.3989 -0.1235
 9369SOL    HW128285   5.197   5.009   2.056  0.4178 -0.2232  0.7276
 9369SOL    HW228286   5.340   5.072   2.009 -0.2013  0.4058 -0.3766
 9370SOL     OW28287   4.743   7.062   6.717  0.1735 -0.2591 -0.1374
 9370SOL    HW128288   4.665   7.022   6.765 -0.6340  0.1644 -1.0578
 9370SOL    HW228289   4.791   6.991   6.666 -0.8160 -0.2133 -1.1735
 9371SOL     OW28290   5.193   8.326   2.659 -0.1488 -0.0625 -0.0940
 9371SOL    HW128291   5.128   8.397   2.687 -1.3832 -1.8290  1.8539
 9371SOL    HW228292   5.148   8.264   2.594 -0.6439 -1.4852  1.5142
 9372SOL     OW28293   5.174   7.977   3.736  0.7385  0.0523  0.0759
 9372SOL    HW128294   5.182   7.987   3.637 -0.3842  0.1008 -0.0202
 9372SOL    HW228295   5.249   8.025   3.780 -0.0666  2.0787 -0.6679
 9373SOL     OW28296   2.081   2.348   1.159 -0.3852 -0.4484  0.0852
 9373SOL    HW128297   1.992   2.358   1.204  0.2718  0.1575  1.3351
 9373SOL    HW228298   2.070   2.357   1.060 -1.5435  1.0524  0.3044
 9374SOL     OW28299   8.408   3.449   7.669  0.3318 -0.3777 -0.7903
 9374SOL    HW128300   8.321   3.454   7.619 -0.5792 -2.8749  0.3741
 9374SOL    HW228301   8.483   3.438   7.603 -0.6183 -1.5153 -1.7478
 9375SOL     OW28302   6.003   8.844   0.717 -0.3469 -0.1320 -0.6600
 9375SOL    HW128303   5.973   8.939   0.711 -0.2818 -0.0289  0.5338
 9375SOL    HW228304   5.924   8.786   0.738  0.0257 -0.0171  1.1863
 9376SOL     OW28305   1.510   3.698   0.441  0.0451 -0.5248 -0.2279
 9376SOL    HW128306   1.538   3.711   0.537 -1.9609  0.9812  0.2353
 9376SOL    HW228307   1.421   3.741   0.427  0.4499 -0.4121 -2.8973
 9377SOL     OW28308   6.606   2.491   4.909  0.7746  0.0912 -0.0647
 9377SOL    HW128309   6.532   2.442   4.863  0.3137  1.1621 -0.4862
 9377SOL    HW228310   6.612   2.584   4.873  0.0404  1.1623  2.3635
 9378SOL     OW28311   0.074   2.818   0.204 -0.2952 -0.5596  0.6202
 9378SOL    HW128312   0.162   2.778   0.178  0.0505  0.1417  0.6902
 9378SOL    HW228313   0.009   2.745   0.224 -0.6567 -1.2017 -2.3759
 9379SOL     OW28314   2.530   2.076   1.852 -0.5039  0.6487 -0.7195
 9379SOL    HW128315   2.570   2.137   1.920 -0.3586  0.5029 -0.6749
 9379SOL    HW228316   2.597   2.007   1.826 -1.7161 -1.6255  1.7385
 9380SOL     OW28317   8.531   8.717   1.046 -0.4040 -0.0159  0.1933
 9380SOL    HW128318   8.540   8.683   0.952 -1.2909 -0.5362  0.2794
 9380SOL    HW228319   8.470   8.656   1.097 -1.2987  1.1919  0.6134
 9381SOL     OW28320   2.851   2.610   1.614  0.3783 -0.1454 -0.1899
 9381SOL    HW128321   2.752   2.619   1.610  0.1840 -0.0772  2.7519
 9381SOL    HW228322   2.893   2.701   1.618  0.2482 -0.1474  2.3791
 9382SOL     OW28323   1.637   0.178   5.025  0.4862 -0.4184 -0.2039
 9382SOL    HW128324   1.569   0.188   5.098 -0.2811 -0.8701 -0.8397
 9382SOL    HW228325   1.729   0.183   5.064  0.0897 -0.0940  0.7125
 9383SOL     OW28326   0.515   8.457   6.894 -0.2103 -0.0453  0.2445
 9383SOL    HW128327   0.499   8.548   6.932 -0.0333 -0.3374  1.0355
 9383SOL    HW228328   0.444   8.394   6.927  0.4367 -0.4974  0.7721
 9384SOL     OW28329   1.409   2.826   5.025 -0.3578 -0.3024 -0.3624
 9384SOL    HW128330   1.329   2.885   5.027  0.0319  0.2092  0.5097
 9384SOL    HW228331   1.435   2.808   4.929 -1.2645 -0.1577 -0.6435
 9385SOL     OW28332   8.657   5.888   2.122  0.1547  0.4219 -0.2768
 9385SOL    HW128333   8.679   5.820   2.052 -0.3530  0.5270 -0.5413
 9385SOL    HW228334   8.561   5.880   2.148  0.3500  0.3436  0.4604
 9386SOL     OW28335   6.275   7.739   3.447  0.0701  0.1078 -0.2893
 9386SOL    HW128336   6.345   7.765   3.380  1.9292  0.2678  1.5842
 9386SOL    HW228337   6.254   7.642   3.437  1.7335 -0.3287  0.0355
 9387SOL     OW28338   6.822   4.825   0.564 -0.0528 -0.4529 -0.5235
 9387SOL    HW128339   6.877   4.763   0.508 -0.0252 -0.5149 -0.4290
 9387SOL    HW228340   6.734   4.841   0.520 -0.5351 -1.5097  0.0228
 9388SOL     OW28341   4.791   3.389   6.147 -0.1683 -0.4636 -0.3547
 9388SOL    HW128342   4.853   3.447   6.199 -0.3086  0.7494 -1.4842
 9388SOL    HW228343   4.697   3.415   6.167 -0.2119  0.4452 -1.6518
 9389SOL     OW28344   0.912   0.953   6.861  0.8985 -0.0233  0.5270
 9389SOL    HW128345   0.938   0.938   6.766  0.5354 -0.0742  0.4312
 9389SOL    HW228346   0.833   0.896   6.883  0.8914  0.0959  0.8138
 9390SOL     OW28347   4.050   3.493   3.099 -0.3707  0.0358  0.1855
 9390SOL    HW128348   4.005   3.525   3.182 -0.7893  1.8683 -0.6943
 9390SOL    HW228349   4.122   3.558   3.073 -0.8244 -0.0151 -1.3431
 9391SOL     OW28350   4.605   6.860   4.609  0.3285 -0.2788  0.0797
 9391SOL    HW128351   4.514   6.822   4.594 -0.3185  1.5901 -1.0953
 9391SOL    HW228352   4.610   6.952   4.570  2.3573  0.1599  1.2024
 9392SOL     OW28353   4.019   5.193   6.520 -0.4858 -0.0879  0.7279
 9392SOL    HW128354   3.942   5.157   6.467 -0.8026  1.1659  0.2957
 9392SOL    HW228355   4.082   5.119   6.543 -0.5841 -0.7491 -1.0093
 9393SOL     OW28356   7.210   0.978   7.593 -0.1830 -0.2409  0.1724
 9393SOL    HW128357   7.300   0.946   7.625 -1.1214 -1.5830  1.5985
 9393SOL    HW228358   7.213   0.991   7.494  2.3084  2.2111  0.4265
 9394SOL     OW28359   7.481   7.981   8.472  0.5498 -0.4646  0.2358
 9394SOL    HW128360   7.535   7.897   8.464 -0.0137 -0.7895 -0.2363
 9394SOL    HW228361   7.388   7.958   8.501 -0.2848 -0.2711 -2.0970
 9395SOL     OW28362   6.349   0.005   0.465  0.2820 -0.1168  0.1406
 9395SOL    HW128363   6.379   0.097   0.442 -1.9368  0.6955  0.2224
 9395SOL    HW228364   6.339  -0.005   0.564 -0.2639 -0.1608  0.0872
 9396SOL     OW28365   6.183   1.226   2.106 -0.1524 -0.3950 -0.3391
 9396SOL    HW128366   6.183   1.326   2.104 -0.3650 -0.3556  1.0178
 9396SOL    HW228367   6.194   1.194   2.200  0.2512 -1.6586 -0.7975
 9397SOL     OW28368   5.868   5.605   7.612 -0.1083 -0.0096  0.3241
 9397SOL    HW128369   5.875   5.528   7.550  0.8827 -0.3234  0.8060
 9397SOL    HW228370   5.929   5.591   7.690 -2.5857 -0.5157  2.3322
 9398SOL     OW28371   7.563   0.741   7.773 -0.2930 -0.7263  0.1985
 9398SOL    HW128372   7.547   0.837   7.797 -0.4806 -0.9686  1.1044
 9398SOL    HW228373   7.494   0.711   7.708  1.4178  0.5277 -2.3835
 9399SOL     OW28374   7.482   1.283   8.713 -0.1015 -0.4744 -0.4413
 9399SOL    HW128375   7.539   1.213   8.671 -0.4308 -1.0223  0.0089
 9399SOL    HW228376   7.463   1.258   8.808 -1.8441 -0.7920 -0.8315
 9400SOL     OW28377   0.262   3.977   3.850 -0.1749  0.2750 -0.0847
 9400SOL    HW128378   0.289   3.971   3.947  2.3460  1.7480 -0.5858
 9400SOL    HW228379   0.301   3.900   3.800 -0.1036  0.3676 -0.1738
 9401SOL     OW28380   3.658   0.687   4.614  0.3162  0.4003 -0.4222
 9401SOL    HW128381   3.696   0.664   4.703 -0.6676  0.6065  0.0717
 9401SOL    HW228382   3.558   0.684   4.619  0.2431  0.7323 -1.4334
 9402SOL     OW28383   8.246   2.493   7.331 -0.1146  0.3248 -0.1383
 9402SOL    HW128384   8.192   2.552   7.271  1.6022  0.3629 -1.7310
 9402SOL    HW228385   8.342   2.519   7.324  0.1608  0.3567  2.7033
 9403SOL     OW28386   8.681   7.819   1.825 -0.0943  0.0341 -0.0769
 9403SOL    HW128387   8.680   7.728   1.783 -1.0563  0.3077 -0.6791
 9403SOL    HW228388   8.754   7.873   1.785 -1.1596  0.3812 -1.6613
 9404SOL     OW28389   8.502   5.485   4.108  0.5791  0.7086  0.0465
 9404SOL    HW128390   8.589   5.510   4.066  1.2929 -2.4951 -0.7339
 9404SOL    HW228391   8.427   5.509   4.046  1.1065  1.3772 -0.3437
 9405SOL     OW28392   4.050   1.218   0.828  0.1745  0.2783 -0.4243
 9405SOL    HW128393   4.022   1.285   0.896  0.8087 -0.6544  0.8021
 9405SOL    HW228394   4.110   1.150   0.871  0.0987 -0.6863 -1.7787
 9406SOL     OW28395   7.859   2.413   1.909  0.1877 -0.2543 -0.4203
 9406SOL    HW128396   7.912   2.409   1.994  0.8095 -1.5260 -0.8451
 9406SOL    HW228397   7.894   2.486   1.851  2.2391 -1.7560 -1.1580
 9407SOL     OW28398   5.455   1.515   6.917  0.3969 -0.0644  0.0676
 9407SOL    HW128399   5.417   1.442   6.973  0.7007 -0.1822  0.1233
 9407SOL    HW228400   5.534   1.556   6.964  0.4594  0.0463 -0.1316
 9408SOL     OW28401   4.129   1.111   8.110  0.0568  0.1326 -0.4104
 9408SOL    HW128402   4.084   1.033   8.067  0.4492  0.6946 -1.8910
 9408SOL    HW228403   4.228   1.095   8.113  0.2045  0.8172 -1.2822
 9409SOL     OW28404   6.135   0.373   7.407  0.1201 -0.3007  0.3197
 9409SOL    HW128405   6.104   0.337   7.495  2.4980  0.3163  1.4945
 9409SOL    HW228406   6.108   0.310   7.334  0.5002 -2.2912  1.8109
 9410SOL     OW28407   8.481   8.426   8.251  0.1502  0.4265  0.1045
 9410SOL    HW128408   8.544   8.462   8.182  2.8060 -2.0404  1.0171
 9410SOL    HW228409   8.495   8.474   8.338  0.3252  0.3242  0.1347
 9411SOL     OW28410   0.346   4.377   4.695  0.0752  0.8627  0.2328
 9411SOL    HW128411   0.250   4.405   4.700 -0.3570 -0.5703  0.2909
 9411SOL    HW228412   0.389   4.419   4.615 -1.0871  0.1308 -0.8099
 9412SOL     OW28413   7.449   1.245   0.404 -0.3536 -0.6131  0.1937
 9412SOL    HW128414   7.494   1.213   0.321  0.4901 -1.1727  0.8406
 9412SOL    HW228415   7.504   1.318   0.446 -0.4322 -0.7770  0.5887
 9413SOL     OW28416   8.049   3.596   6.675 -0.2724 -0.1284  1.0326
 9413SOL    HW128417   7.954   3.611   6.647 -0.1168 -0.1495  0.4641
 9413SOL    HW228418   8.078   3.505   6.647  0.5307  0.5973 -0.6540
 9414SOL     OW28419   3.019   8.443   1.483 -0.4293 -0.0810 -0.0181
 9414SOL    HW128420   2.965   8.372   1.530 -0.2508 -1.2872 -1.5603
 9414SOL    HW228421   3.025   8.421   1.386  1.6419  0.7889 -0.1289
 9415SOL     OW28422   0.122   7.858   7.163 -0.2993 -0.1203  0.0777
 9415SOL    HW128423   0.160   7.799   7.233 -0.2177 -3.1699 -2.3242
 9415SOL    HW228424   0.191   7.876   7.093 -1.3055 -0.0183 -0.9173
 9416SOL     OW28425   0.584   8.086   2.429 -0.1663 -0.3872 -0.0717
 9416SOL    HW128426   0.553   8.124   2.516  0.8170 -0.9250  0.5340
 9416SOL    HW228427   0.663   8.138   2.396 -1.3329  0.6441 -1.3330
 9417SOL     OW28428   0.273   5.527   5.112  0.0427 -0.1755 -0.2019
 9417SOL    HW128429   0.321   5.516   5.025 -1.1972  1.7246 -1.1973
 9417SOL    HW228430   0.334   5.568   5.179  1.0235 -1.7007 -0.0981
 9418SOL     OW28431   8.250   5.028   2.495  0.3598  0.7903  0.1145
 9418SOL    HW128432   8.256   5.101   2.427 -1.4697  1.1090  0.2524
 9418SOL    HW228433   8.175   5.046   2.557  0.1677 -0.9781  0.4541
 9419SOL     OW28434   5.840   8.340   2.698  0.2801 -0.2033 -0.6274
 9419SOL    HW128435   5.774   8.406   2.664  1.5050  0.0496 -2.6911
 9419SOL    HW228436   5.845   8.262   2.636  1.6364 -0.3842 -0.3273
 9420SOL     OW28437   3.839   2.036   1.351 -0.1638 -0.6436 -0.5421
 9420SOL    HW128438   3.839   2.113   1.414  1.5533 -0.0078 -1.2428
 9420SOL    HW228439   3.848   1.951   1.402 -3.1639 -0.5535  0.3264
 9421SOL     OW28440   2.341   7.626   3.354 -0.2535 -0.2276  0.2900
 9421SOL    HW128441   2.440   7.611   3.348 -0.3403 -1.6662  1.7520
 9421SOL    HW228442   2.314   7.633   3.450 -1.7987 -1.8162  0.0339
 9422SOL     OW28443   8.250   4.162   8.351  0.3111  0.0790 -0.5770
 9422SOL    HW128444   8.324   4.096   8.362 -0.9264 -1.4121 -0.8127
 9422SOL    HW228445   8.215   4.157   8.257 -1.1379 -0.4422 -0.0341
 9423SOL     OW28446   3.647   6.630   8.093 -0.1570 -0.0756  0.0565
 9423SOL    HW128447   3.567   6.580   8.061  0.5776 -1.6555  0.5889
 9423SOL    HW228448   3.668   6.704   8.029 -1.1817 -0.5321 -0.8373
 9424SOL     OW28449   4.343   5.239   1.537  0.3914 -0.0656 -0.0347
 9424SOL    HW128450   4.279   5.193   1.475  1.7917 -0.4011 -1.3098
 9424SOL    HW228451   4.391   5.311   1.487 -0.4585  1.6171  1.4532
 9425SOL     OW28452   5.837   4.997   6.947  0.1447  0.3354 -0.0504
 9425SOL    HW128453   5.817   5.093   6.968 -4.1226 -0.3574 -0.0822
 9425SOL    HW228454   5.821   4.941   7.028  0.4997 -0.5882 -0.6025
 9426SOL     OW28455   2.907   5.921   4.081  0.0738  0.1192  0.3246
 9426SOL    HW128456   2.921   5.871   3.996  1.8861 -0.2480  0.8074
 9426SOL    HW228457   2.869   6.011   4.061 -0.3713 -0.3002 -0.7839
 9427SOL     OW28458   6.636   7.259   6.626 -0.4668  0.6727 -0.1551
 9427SOL    HW128459   6.714   7.319   6.608  1.2822 -1.5664 -0.4287
 9427SOL    HW228460   6.564   7.277   6.559  1.2472  0.4304 -2.1440
 9428SOL     OW28461   1.625   5.701   1.777  0.2611  0.0899  0.4622
 9428SOL    HW128462   1.605   5.719   1.873 -0.3396 -1.6037  0.6809
 9428SOL    HW228463   1.700   5.635   1.770  0.1920  0.0800 -0.2363
 9429SOL     OW28464   8.423   1.004   8.000  0.1823  0.1013 -0.3035
 9429SOL    HW128465   8.335   0.957   8.001  0.2589 -0.0416 -0.2837
 9429SOL    HW228466   8.488   0.951   7.945 -0.1183  0.8911 -1.4691
 9430SOL     OW28467   3.883   4.953   0.534  0.4881  0.1755 -0.2807
 9430SOL    HW128468   3.899   4.872   0.591  1.4475  0.5143 -0.0362
 9430SOL    HW228469   3.786   4.975   0.533  0.4506  0.1955  1.2988
 9431SOL     OW28470   6.748   4.226   6.771  0.1428 -0.2168 -0.4618
 9431SOL    HW128471   6.691   4.156   6.814  1.1404  0.5323  2.2690
 9431SOL    HW228472   6.844   4.198   6.774  0.2780 -0.1188 -2.3175
 9432SOL     OW28473   8.180   3.442   2.743  0.1693  0.0761 -0.2774
 9432SOL    HW128474   8.088   3.475   2.719 -0.6067 -2.4364 -1.0359
 9432SOL    HW228475   8.176   3.395   2.831  0.8218  0.2510 -0.1518
 9433SOL     OW28476   7.752   2.096   8.567 -0.2382  0.6787  0.4352
 9433SOL    HW128477   7.712   2.123   8.479 -0.3380 -0.3225  0.1623
 9433SOL    HW228478   7.837   2.045   8.550  0.6616  1.9333  0.9763
 9434SOL     OW28479   6.116   8.577   0.614  0.2299 -0.2180 -0.2662
 9434SOL    HW128480   6.181   8.618   0.677 -0.1844 -1.1450  0.8002
 9434SOL    HW228481   6.031   8.630   0.614  0.4287  0.1048 -0.4851
 9435SOL     OW28482   1.018   4.663   2.153 -0.5913 -0.6104 -0.1545
 9435SOL    HW128483   0.947   4.610   2.199 -2.5707  0.8267 -1.3397
 9435SOL    HW228484   1.058   4.608   2.079 -1.6576 -0.9321 -0.5152
 9436SOL     OW28485   2.746   2.720   5.740 -0.6510 -0.2661  0.0411
 9436SOL    HW128486   2.757   2.689   5.645  0.6792 -0.0597  0.1147
 9436SOL    HW228487   2.742   2.640   5.800 -0.9297 -0.3802 -0.1216
 9437SOL     OW28488   5.750   1.961   1.797 -0.0550 -0.0831 -0.1554
 9437SOL    HW128489   5.838   1.914   1.800  0.2399  0.5013  1.3008
 9437SOL    HW228490   5.716   1.973   1.890 -1.9326 -0.7505 -0.7073
 9438SOL     OW28491   3.230   2.200   6.162 -0.3731 -0.0670  0.5545
 9438SOL    HW128492   3.197   2.107   6.150  0.1485 -0.4066  1.6232
 9438SOL    HW228493   3.174   2.248   6.229 -0.2982  0.1988  0.4291
 9439SOL     OW28494   5.893   4.689   0.601  0.5513 -0.2135  0.1677
 9439SOL    HW128495   5.842   4.730   0.525  0.5188  0.5851  0.6004
 9439SOL    HW228496   5.848   4.712   0.687  0.3028 -1.5351  0.4103
 9440SOL     OW28497   0.857   4.435   2.041 -0.0617  0.7270  0.5924
 9440SOL    HW128498   0.806   4.499   1.983  0.3022 -0.6132 -1.3044
 9440SOL    HW228499   0.951   4.428   2.007  0.4075  0.5470  1.8951
 9441SOL     OW28500   1.860   6.444   4.911  0.8655 -0.0697 -0.8425
 9441SOL    HW128501   1.921   6.521   4.931 -0.0638  0.6955 -0.8720
 9441SOL    HW228502   1.829   6.403   4.997 -0.4463  1.0699 -0.7304
 9442SOL     OW28503   2.099   0.681   1.495  0.5845  0.5936  0.1514
 9442SOL    HW128504   2.133   0.721   1.410 -1.1015 -0.5935 -1.1392
 9442SOL    HW228505   2.000   0.691   1.500  0.5441 -0.1875  1.5434
 9443SOL     OW28506   2.691   1.000   0.378  0.5755  0.1931  0.0447
 9443SOL    HW128507   2.600   1.037   0.396  1.2286  2.0818 -0.3493
 9443SOL    HW228508   2.684   0.926   0.311 -0.7925 -0.6497  1.0464
 9444SOL     OW28509   6.549   2.258   7.463 -0.3656 -0.0688 -0.0306
 9444SOL    HW128510   6.465   2.308   7.443  0.0289  0.7998  0.4221
 9444SOL    HW228511   6.548   2.227   7.558 -1.2946 -2.3309 -0.7086
 9445SOL     OW28512   7.900   8.571   6.075  0.0219 -0.0137  0.1290
 9445SOL    HW128513   7.884   8.660   6.033 -0.6131 -0.5551 -0.7984
 9445SOL    HW228514   7.994   8.543   6.060  0.7533  1.2520  1.9183
 9446SOL     OW28515   6.924   5.178   8.568  0.8600 -0.1723 -0.1247
 9446SOL    HW128516   6.986   5.242   8.614 -1.3156  0.8214  1.6054
 9446SOL    HW228517   6.855   5.230   8.518 -1.4749 -1.0342  2.0191
 9447SOL     OW28518   4.652   1.191   2.062 -0.0767  0.1567 -0.0506
 9447SOL    HW128519   4.671   1.094   2.048 -0.1510  0.1605 -0.1836
 9447SOL    HW228520   4.710   1.226   2.136  0.9922  0.3491 -0.9514
 9448SOL     OW28521   2.592   5.002   3.842 -0.0688 -0.1991  0.1390
 9448SOL    HW128522   2.670   5.064   3.852 -0.5295  0.4880 -0.4264
 9448SOL    HW228523   2.511   5.054   3.814 -0.7093 -0.9190  0.6108
 9449SOL     OW28524   2.220   4.254   4.901 -0.8284  0.0450  0.5267
 9449SOL    HW128525   2.274   4.338   4.898 -1.0690  0.1733 -1.6092
 9449SOL    HW228526   2.123   4.277   4.908 -0.8746 -0.0662  0.2454
 9450SOL     OW28527   7.652   8.443   1.410  0.0926  0.6705  0.3785
 9450SOL    HW128528   7.725   8.374   1.412  0.6428  1.2697  1.6315
 9450SOL    HW228529   7.649   8.485   1.319  0.2385 -0.4747 -0.1754
 9451SOL     OW28530   4.891   2.145   7.003  0.0139  0.3377 -0.1126
 9451SOL    HW128531   4.800   2.128   7.040 -0.9670  3.9229 -0.5542
 9451SOL    HW228532   4.954   2.166   7.078 -0.5149  1.7176 -0.0375
 9452SOL     OW28533   5.961   7.943   2.841 -0.3893  0.3742  0.1990
 9452SOL    HW128534   5.895   7.892   2.897 -0.6781 -0.5428 -0.9381
 9452SOL    HW228535   5.974   8.034   2.880 -2.4009  0.6274  0.3945
 9453SOL     OW28536   8.011   4.245   3.835  0.4266  0.2975 -0.6940
 9453SOL    HW128537   8.105   4.255   3.802  0.9349  0.0893  0.6249
 9453SOL    HW228538   7.984   4.327   3.885  0.2392 -0.0074 -0.2899
 9454SOL     OW28539   7.343   8.184   1.306 -0.1837 -0.3166  0.1320
 9454SOL    HW128540   7.290   8.104   1.336  0.6482 -1.3235 -1.0072
 9454SOL    HW228541   7.437   8.177   1.340 -0.3684  0.7494  0.9338
 9455SOL     OW28542   3.217   3.067   4.490 -0.1482  0.7158 -0.6833
 9455SOL    HW128543   3.281   3.080   4.414  0.6684  3.2855  0.3717
 9455SOL    HW228544   3.258   3.100   4.574 -0.9851 -2.1923  1.0137
 9456SOL     OW28545   2.346   4.007   1.908  0.0132 -0.8810  0.0412
 9456SOL    HW128546   2.337   3.909   1.889 -0.7465 -0.6650 -0.8067
 9456SOL    HW228547   2.422   4.044   1.855  0.7443 -1.1345  0.8944
 9457SOL     OW28548   3.918   0.574   2.702 -0.0608  0.0316 -0.1434
 9457SOL    HW128549   3.963   0.640   2.642  0.8838 -0.8734 -0.4514
 9457SOL    HW228550   3.893   0.492   2.649 -0.3019 -0.2814  0.4467
 9458SOL     OW28551   3.854   2.804   4.222  0.0742 -0.2284 -0.0025
 9458SOL    HW128552   3.925   2.740   4.250  0.5534  0.8975  1.4634
 9458SOL    HW228553   3.827   2.785   4.127  2.7364 -0.3093 -0.8186
 9459SOL     OW28554   7.934   1.904   6.915 -0.1664 -0.2763 -0.5363
 9459SOL    HW128555   8.000   1.829   6.907  0.6293 -0.1070  3.0358
 9459SOL    HW228556   7.869   1.883   6.988 -2.1526  1.0096 -1.8459
 9460SOL     OW28557   0.262   2.752   5.937  0.4229  0.4636  0.1846
 9460SOL    HW128558   0.213   2.838   5.952 -0.1636  0.3985 -1.2358
 9460SOL    HW228559   0.238   2.715   5.848  0.4065 -1.3716  0.9231
 9461SOL     OW28560   5.526   0.260   0.500 -0.0604 -0.5854  0.3153
 9461SOL    HW128561   5.509   0.237   0.596 -2.5698 -1.5417 -0.3045
 9461SOL    HW228562   5.531   0.177   0.446 -2.4823 -0.0026 -0.9283
 9462SOL     OW28563   2.246   4.235   1.235 -0.0633  0.3032 -0.0540
 9462SOL    HW128564   2.279   4.267   1.324  0.1876 -0.6969  0.2206
 9462SOL    HW228565   2.310   4.263   1.164  1.9583 -2.3331  0.5611
 9463SOL     OW28566   5.193   2.108   6.613 -0.3680  0.5810 -0.0955
 9463SOL    HW128567   5.187   2.008   6.618  2.7595  0.3399  1.6823
 9463SOL    HW228568   5.110   2.149   6.651 -0.5399 -1.4097  1.8584
 9464SOL     OW28569   3.354   5.790   5.215 -0.3493  0.1036 -0.0125
 9464SOL    HW128570   3.393   5.792   5.308  0.5440 -0.6051 -0.3540
 9464SOL    HW228571   3.369   5.878   5.171 -0.4881  0.3372  0.4048
 9465SOL     OW28572   3.567   7.654   1.399 -0.0900 -0.4913 -0.3196
 9465SOL    HW128573   3.501   7.715   1.355 -1.9252 -1.4664  0.9833
 9465SOL    HW228574   3.580   7.572   1.343  0.6818  0.0604 -0.9754
 9466SOL     OW28575   3.465   3.180   7.121 -0.0357 -0.1780 -0.3340
 9466SOL    HW128576   3.517   3.223   7.047  0.6392  1.3856  0.9766
 9466SOL    HW228577   3.421   3.097   7.087  1.5548 -0.3878 -2.0530
 9467SOL     OW28578   7.892   3.899   8.755 -0.0687  0.8366  0.1894
 9467SOL    HW128579   7.975   3.869   8.707 -0.1810  0.1341  0.4207
 9467SOL    HW228580   7.917   3.937   8.843  0.0226  0.7810  0.1880
 9468SOL     OW28581   2.760   8.231   4.692  0.0509  0.1134 -0.6160
 9468SOL    HW128582   2.677   8.189   4.728  0.2001 -1.6211 -2.2039
 9468SOL    HW228583   2.755   8.330   4.705 -0.8013 -0.1918  2.2241
 9469SOL     OW28584   5.946   8.083   6.022  0.2874  0.0517  0.1552
 9469SOL    HW128585   5.902   8.014   5.965  0.4926  0.3987 -0.4343
 9469SOL    HW228586   5.880   8.118   6.089 -1.0940  2.2305 -2.2006
 9470SOL     OW28587   5.181   8.471   4.270  0.0236 -0.2986 -0.0041
 9470SOL    HW128588   5.118   8.481   4.193 -1.1268  1.6856  1.1342
 9470SOL    HW228589   5.136   8.498   4.355  2.1601  0.3877  0.9871
 9471SOL     OW28590   6.493   1.862   3.322  0.3130 -0.2662  0.0783
 9471SOL    HW128591   6.407   1.912   3.326 -0.5357 -1.5664 -1.1375
 9471SOL    HW228592   6.484   1.775   3.370  0.7657 -0.6664 -0.5488
 9472SOL     OW28593   3.822   2.404   7.348 -0.3835 -0.3249  0.0662
 9472SOL    HW128594   3.802   2.307   7.359 -0.2480 -0.2488  1.1105
 9472SOL    HW228595   3.741   2.451   7.315 -0.9955 -0.5307  1.2123
 9473SOL     OW28596   7.375   4.863   6.532  0.0256  0.1462 -0.4800
 9473SOL    HW128597   7.326   4.781   6.561  2.0326 -1.1539 -0.5632
 9473SOL    HW228598   7.462   4.869   6.581 -0.1641  2.3802 -0.3068
 9474SOL     OW28599   5.664   6.535   3.140 -0.0234 -0.5220  0.0774
 9474SOL    HW128600   5.580   6.514   3.089 -1.2896  0.6309  1.5802
 9474SOL    HW228601   5.732   6.463   3.123 -1.1741 -1.3234 -1.4357
 9475SOL     OW28602   1.200   6.733   6.044  0.1844  0.0189  0.2554
 9475SOL    HW128603   1.253   6.683   6.113 -1.0292  0.3676  1.4771
 9475SOL    HW228604   1.123   6.779   6.088 -1.0462 -0.3309 -1.4368
 9476SOL     OW28605   1.623   7.870   3.788  0.0690 -0.0584  0.2689
 9476SOL    HW128606   1.592   7.775   3.791  2.0203 -0.7596  0.2242
 9476SOL    HW228607   1.710   7.875   3.738 -0.3542  1.8806 -0.3602
 9477SOL     OW28608   1.675   5.026   3.455  0.3667  0.5098  0.5576
 9477SOL    HW128609   1.585   4.991   3.483 -0.2405  0.9336 -0.7731
 9477SOL    HW228610   1.665   5.078   3.370  1.3654  3.1944  1.9760
 9478SOL     OW28611   8.846   8.830   0.812  0.0712  0.1248  0.1379
 9478SOL    HW128612   8.758   8.816   0.767 -0.1787  1.9391 -0.0210
 9478SOL    HW228613   8.913   8.765   0.776 -1.6124 -2.6474  1.6697
 9479SOL     OW28614   5.844   2.262   1.198  0.4041 -0.1130  0.1964
 9479SOL    HW128615   5.921   2.300   1.146  1.1862 -0.1825  1.2666
 9479SOL    HW228616   5.879   2.201   1.270 -0.5279  1.2511  1.8776
 9480SOL     OW28617   7.989   2.364   5.556 -0.0659 -0.1553  0.0634
 9480SOL    HW128618   7.994   2.399   5.462  0.3747 -1.6758 -0.5071
 9480SOL    HW228619   7.913   2.407   5.604 -0.2560  0.6882 -0.9736
 9481SOL     OW28620   1.810   0.556   5.147 -0.0537 -0.1067  0.0506
 9481SOL    HW128621   1.908   0.573   5.145 -0.0780  0.0620  0.2344
 9481SOL    HW228622   1.771   0.593   5.232 -0.4520  0.8289 -0.5266
 9482SOL     OW28623   0.382   1.043   1.868  0.0644  0.5105 -0.2639
 9482SOL    HW128624   0.389   1.030   1.967  0.5756  0.8735 -0.2477
 9482SOL    HW228625   0.333   1.128   1.849  0.8614  0.9780 -0.2988
 9483SOL     OW28626   5.624   4.610   6.645 -0.5369 -0.1357  0.1185
 9483SOL    HW128627   5.681   4.551   6.702 -1.2297 -1.7419 -0.7867
 9483SOL    HW228628   5.543   4.638   6.696 -1.4764 -2.0852 -0.2096
 9484SOL     OW28629   6.245   7.441   3.421  0.8466 -0.1045 -0.0831
 9484SOL    HW128630   6.278   7.346   3.428  1.2760  0.0747  0.4741
 9484SOL    HW228631   6.145   7.442   3.422  0.7988 -0.6473 -1.5921
 9485SOL     OW28632   3.827   5.469   0.938 -0.2369 -0.1630  0.4553
 9485SOL    HW128633   3.908   5.460   0.880  0.3625 -1.7199  1.4833
 9485SOL    HW228634   3.767   5.541   0.900  2.1706  1.9475  0.3839
 9486SOL     OW28635   1.866   7.030   0.493 -0.2543 -0.6373  0.1597
 9486SOL    HW128636   1.840   7.022   0.590 -1.6700 -0.3737 -0.1669
 9486SOL    HW228637   1.940   7.096   0.484  0.2460 -1.0487  1.1117
 9487SOL     OW28638   8.765   5.866   6.027  0.4308 -0.1780  0.5255
 9487SOL    HW128639   8.860   5.884   6.001  0.4398 -0.0776  0.6253
 9487SOL    HW228640   8.704   5.908   5.960  0.4602 -1.4436 -0.3158
 9488SOL     OW28641   0.149   1.131   3.400 -0.0893 -0.0038 -0.0857
 9488SOL    HW128642   0.149   1.127   3.499  0.7575 -0.0679 -0.0863
 9488SOL    HW228643   0.085   1.062   3.364 -0.0044 -0.3364  0.3998
 9489SOL     OW28644   3.643   1.351   5.099  0.2980  0.2514  0.0433
 9489SOL    HW128645   3.606   1.401   5.021  0.5480  0.2884 -0.0540
 9489SOL    HW228646   3.715   1.405   5.142 -1.0737  1.0534  1.4376
 9490SOL     OW28647   3.501   1.755   8.842  0.2327 -0.3858  0.0892
 9490SOL    HW128648   3.415   1.727   8.799  0.6017 -0.2713 -0.7383
 9490SOL    HW228649   3.496   1.851   8.867  0.8803  0.2269 -1.9532
 9491SOL     OW28650   5.445   2.880   7.505 -0.5418 -0.3801  0.0737
 9491SOL    HW128651   5.535   2.837   7.496 -0.2346  0.3670 -0.4605
 9491SOL    HW228652   5.450   2.954   7.572 -0.4083  0.5729 -0.9621
 9492SOL     OW28653   0.318   7.638   2.584  0.2206 -0.3255  0.1286
 9492SOL    HW128654   0.347   7.544   2.569  1.7759 -0.1823  1.8683
 9492SOL    HW228655   0.334   7.664   2.679  0.4754  1.8913 -0.4449
 9493SOL     OW28656   1.678   2.746   5.078 -0.1390 -0.1326  0.1587
 9493SOL    HW128657   1.581   2.767   5.071  0.0486  0.3708 -1.3551
 9493SOL    HW228658   1.709   2.702   4.994  0.8468 -0.7361  0.8124
 9494SOL     OW28659   7.185   3.661   3.752  0.3734  0.5559  0.0759
 9494SOL    HW128660   7.137   3.682   3.837 -0.8205 -0.9110 -0.2081
 9494SOL    HW228661   7.120   3.633   3.682  1.2592  2.2665 -1.5469
 9495SOL     OW28662   2.296   5.571   0.879  0.3438 -0.1981 -0.1004
 9495SOL    HW128663   2.229   5.498   0.885  0.5003 -0.2353  1.4731
 9495SOL    HW228664   2.272   5.632   0.803 -1.1582 -0.5017  0.1058
 9496SOL     OW28665   4.161   0.922   1.158  0.3742  0.6957 -0.1004
 9496SOL    HW128666   4.246   0.952   1.201  0.1527 -0.4676  1.2468
 9496SOL    HW228667   4.167   0.933   1.059  2.5612 -0.4658 -0.1476
 9497SOL     OW28668   8.716   5.043   3.743  0.0178  0.2320 -0.3968
 9497SOL    HW128669   8.713   4.982   3.822 -1.1833  0.9143  0.1140
 9497SOL    HW228670   8.658   5.123   3.760 -0.8627  0.0544 -2.2396
 9498SOL     OW28671   6.705   7.814   6.496 -0.6116  0.2175  0.0239
 9498SOL    HW128672   6.666   7.904   6.479  1.0413  1.1186  0.7558
 9498SOL    HW228673   6.756   7.816   6.582  0.0646 -1.2119 -0.3141
 9499SOL     OW28674   2.335   5.920   7.889 -0.2020 -0.0557  0.0690
 9499SOL    HW128675   2.254   5.893   7.942  1.5681 -2.4095  1.8269
 9499SOL    HW228676   2.371   6.006   7.925 -0.4488 -0.3563  1.0812
 9500SOL     OW28677   7.523   3.401   8.047 -0.0645 -0.1146  0.0578
 9500SOL    HW128678   7.470   3.359   7.973  0.6270 -1.4424  0.2808
 9500SOL    HW228679   7.467   3.409   8.128 -0.0213 -1.3264  0.2318
 9501SOL     OW28680   3.546   8.061   0.359  0.2205  0.1911  0.1979
 9501SOL    HW128681   3.517   8.080   0.265 -0.6508  2.0176  0.7807
 9501SOL    HW228682   3.555   7.962   0.372 -0.5352 -0.1452 -1.5382
 9502SOL     OW28683   8.699   0.182   1.413 -0.0547  0.0032 -0.4928
 9502SOL    HW128684   8.620   0.139   1.370 -0.4056 -1.0228  1.1337
 9502SOL    HW228685   8.705   0.278   1.383 -1.1396 -0.2606 -1.6240
 9503SOL     OW28686   7.177   7.339   5.721  0.6675 -0.0505  0.1805
 9503SOL    HW128687   7.085   7.319   5.756  1.2362  0.6536  2.2078
 9503SOL    HW228688   7.172   7.415   5.657 -0.1776 -0.1698  0.0854
 9504SOL     OW28689   5.938   6.235   1.891 -0.4171 -0.5815  0.5252
 9504SOL    HW128690   5.904   6.165   1.955 -0.6349 -0.5970  0.3936
 9504SOL    HW228691   5.874   6.245   1.815  0.3960 -1.3634 -0.2817
 9505SOL     OW28692   6.173   1.956   6.344 -0.7386 -0.0092  0.0312
 9505SOL    HW128693   6.185   1.895   6.265 -0.8214  0.7976 -0.6082
 9505SOL    HW228694   6.217   2.044   6.326 -0.2037 -0.0252  1.1448
 9506SOL     OW28695   0.883   6.116   0.199 -0.1508 -0.1595 -0.1678
 9506SOL    HW128696   0.805   6.084   0.254 -1.6328  2.3851 -0.6333
 9506SOL    HW228697   0.867   6.094   0.103  0.4078 -0.8269 -0.1218
 9507SOL     OW28698   5.155   1.199   6.751 -0.6841  0.0922  0.6405
 9507SOL    HW128699   5.137   1.180   6.655  1.1297 -1.9528  0.6167
 9507SOL    HW228700   5.220   1.275   6.758 -0.7606  0.1962  0.2661
 9508SOL     OW28701   0.249   2.375   1.362 -0.6400 -0.0292  0.0868
 9508SOL    HW128702   0.166   2.410   1.319 -1.7137  0.6844  2.5168
 9508SOL    HW228703   0.244   2.275   1.368 -1.8265  0.0595  1.0347
 9509SOL     OW28704   1.644   8.498   5.498 -0.0855 -0.0284  0.1517
 9509SOL    HW128705   1.700   8.553   5.435  0.1420 -2.5970 -2.0439
 9509SOL    HW228706   1.685   8.500   5.589  1.1119  1.6381 -0.3743
 9510SOL     OW28707   0.083   4.133   4.106 -0.0750  0.4118  0.6476
 9510SOL    HW128708   0.099   4.231   4.104 -0.6408  0.5014  0.5506
 9510SOL    HW228709   0.170   4.086   4.126  0.1328  0.9397  1.0102
 9511SOL     OW28710   4.847   2.749   5.995  0.1667  0.2317 -0.2156
 9511SOL    HW128711   4.813   2.813   6.064 -0.7283 -1.4197  0.9374
 9511SOL    HW228712   4.806   2.659   6.009 -0.0855 -0.1643 -2.9824
 9512SOL     OW28713   5.467   1.053   2.802 -0.1212  0.7683  0.1344
 9512SOL    HW128714   5.373   1.025   2.786 -0.3293  0.3413  1.9314
 9512SOL    HW228715   5.507   0.997   2.875  0.6918  2.6418  1.1840
 9513SOL     OW28716   6.824   3.349   7.237  0.4254  0.1110 -0.4839
 9513SOL    HW128717   6.794   3.393   7.153  0.7234  0.7793 -0.2493
 9513SOL    HW228718   6.745   3.331   7.296  0.2581 -0.0310 -0.7497
 9514SOL     OW28719   2.031   6.486   8.251  0.1986 -0.3862  0.7695
 9514SOL    HW128720   1.943   6.531   8.264 -0.8186 -2.0175 -0.1189
 9514SOL    HW228721   2.085   6.536   8.183  0.4857  1.2762  2.1554
 9515SOL     OW28722   8.202   8.121   7.249 -0.0718  0.3104  0.5864
 9515SOL    HW128723   8.272   8.152   7.313 -0.7003 -0.1242  1.5019
 9515SOL    HW228724   8.245   8.091   7.164  0.9633 -0.8767  1.4878
 9516SOL     OW28725   3.065   8.018   7.804 -0.1370  0.0124  0.0877
 9516SOL    HW128726   3.046   7.920   7.804 -0.1268  0.0003 -1.0068
 9516SOL    HW228727   3.002   8.064   7.867 -0.9609 -0.5485 -0.3173
 9517SOL     OW28728   4.061   1.388   2.338  0.3482  0.0157  0.0312
 9517SOL    HW128729   4.030   1.482   2.346  0.9508  0.1939  0.3604
 9517SOL    HW228730   4.069   1.364   2.241  1.3269  0.7037 -0.0764
 9518SOL     OW28731   3.124   7.245   2.880 -0.4104  0.0635 -0.2156
 9518SOL    HW128732   3.193   7.180   2.913  0.7523  1.5796  0.4561
 9518SOL    HW228733   3.169   7.330   2.854 -2.0559  1.1428  0.3587
 9519SOL     OW28734   0.137   8.081   7.963 -0.7045  0.9348  0.4647
 9519SOL    HW128735   0.052   8.115   8.002 -0.9143  0.7024  0.2119
 9519SOL    HW228736   0.159   8.133   7.880 -1.0967  0.3736  0.0015
 9520SOL     OW28737   4.614   6.557   5.398 -0.4225 -0.2274  0.0477
 9520SOL    HW128738   4.649   6.616   5.326 -2.4311 -0.3983 -1.1579
 9520SOL    HW228739   4.682   6.488   5.422 -0.9021 -2.6848 -4.5288
 9521SOL     OW28740   0.430   7.984   5.342 -0.2295 -0.2115 -0.2906
 9521SOL    HW128741   0.442   7.989   5.243  0.9953  0.2049 -0.1486
 9521SOL    HW228742   0.355   7.922   5.364 -0.2526 -0.6242 -1.4617
 9522SOL     OW28743   7.712   1.506   8.657 -0.0920  0.1065 -0.7054
 9522SOL    HW128744   7.617   1.487   8.632 -0.4011  0.7637 -0.0613
 9522SOL    HW228745   7.764   1.420   8.659 -0.7657 -0.3035 -0.6594
 9523SOL     OW28746   1.367   1.006   6.572  0.9048  0.0380 -0.2265
 9523SOL    HW128747   1.371   0.957   6.659  1.1587  2.2899  1.1056
 9523SOL    HW228748   1.418   1.091   6.579  1.0650  0.2182 -2.6676
 9524SOL     OW28749   5.240   7.000   3.826 -0.3495 -0.0223  0.0864
 9524SOL    HW128750   5.284   7.011   3.916 -1.6510 -0.2623  0.7776
 9524SOL    HW228751   5.286   7.059   3.759  1.1026 -0.3781  0.7327
 9525SOL     OW28752   8.625   8.684   3.009 -0.3277 -0.0422 -0.2091
 9525SOL    HW128753   8.603   8.673   3.106  1.8320 -3.0793  0.0917
 9525SOL    HW228754   8.651   8.596   2.970  1.1961  1.4563 -2.9446
 9526SOL     OW28755   7.160   4.212   2.867 -0.3955  0.1266 -0.3372
 9526SOL    HW128756   7.139   4.234   2.771 -1.5367  0.2752 -0.0647
 9526SOL    HW228757   7.148   4.114   2.883 -1.3492  0.2821 -0.0718
 9527SOL     OW28758   0.036   5.116   1.192 -0.3557  0.3676  0.0361
 9527SOL    HW128759   0.018   5.018   1.180  0.0388 -0.0181  2.2259
 9527SOL    HW228760   0.120   5.128   1.245 -1.7423  1.7740  2.0832
 9528SOL     OW28761   5.233   4.945   8.708  0.6435  0.1792 -0.1724
 9528SOL    HW128762   5.168   4.883   8.753  0.0707  0.5504 -0.4749
 9528SOL    HW228763   5.195   4.974   8.620  1.7362 -0.5281 -0.9080
 9529SOL     OW28764   7.541   0.594   6.314  0.4125 -0.8177  0.5148
 9529SOL    HW128765   7.596   0.519   6.349  0.1405 -1.3164 -0.1079
 9529SOL    HW228766   7.473   0.559   6.250 -0.2372 -0.1336  0.8133
 9530SOL     OW28767   5.119   5.094   0.637 -0.2038 -0.7007  0.0444
 9530SOL    HW128768   5.120   5.071   0.540 -0.3765  0.0463 -0.1397
 9530SOL    HW228769   5.038   5.052   0.680 -1.2747  0.6378 -0.5749
 9531SOL     OW28770   7.971   8.790   8.070 -0.1043  0.4273 -0.6515
 9531SOL    HW128771   7.990   8.803   7.973 -1.2542  0.8994 -0.8369
 9531SOL    HW228772   8.051   8.753   8.115  0.3717 -0.0204 -1.8239
 9532SOL     OW28773   5.520   6.647   6.143  0.2351  0.6103 -0.3067
 9532SOL    HW128774   5.465   6.624   6.223  0.0333 -0.6162 -0.7684
 9532SOL    HW228775   5.611   6.675   6.172  0.3605 -0.4213  0.3482
 9533SOL     OW28776   4.922   5.768   1.236  0.0814  0.4562  0.0592
 9533SOL    HW128777   4.998   5.725   1.283 -0.6564  0.6992  1.5389
 9533SOL    HW228778   4.907   5.860   1.274 -0.1073  0.9359 -1.1361
 9534SOL     OW28779   7.531   1.870   2.757 -0.2508 -0.6300  0.2038
 9534SOL    HW128780   7.592   1.927   2.702  0.4675 -0.1546  1.4366
 9534SOL    HW228781   7.560   1.775   2.752  1.3871 -0.2679  1.7007
 9535SOL     OW28782   1.245   7.980   0.330 -0.3413  0.4264 -0.7459
 9535SOL    HW128783   1.338   8.007   0.356 -0.5977  2.0559 -1.3748
 9535SOL    HW228784   1.247   7.936   0.240 -0.2582  1.3128 -1.1917
 9536SOL     OW28785   8.452   3.458   0.795 -0.2020  0.2983 -0.4774
 9536SOL    HW128786   8.472   3.361   0.803 -0.4706  0.2639 -0.2046
 9536SOL    HW228787   8.353   3.471   0.789 -0.1620  0.5477 -0.5923
 9537SOL     OW28788   3.869   4.996   2.296 -0.6571  0.4018 -0.0926
 9537SOL    HW128789   3.852   4.941   2.378 -0.8352 -0.4638 -0.6996
 9537SOL    HW228790   3.967   4.992   2.274 -0.6293  0.5366  0.0028
 9538SOL     OW28791   6.060   4.003   5.196 -0.0752  0.7670  0.4708
 9538SOL    HW128792   6.017   4.026   5.109 -1.2449 -0.7772  0.6030
 9538SOL    HW228793   6.113   4.082   5.229 -0.5878  1.7808 -1.0300
 9539SOL     OW28794   1.462   4.697   2.737  0.1344 -0.8847 -0.1674
 9539SOL    HW128795   1.520   4.674   2.659 -0.0760 -0.7891 -0.3555
 9539SOL    HW228796   1.519   4.709   2.818  0.3390 -1.1421 -0.2698
 9540SOL     OW28797   4.386   0.964   6.849  0.1145  0.0004 -0.2596
 9540SOL    HW128798   4.459   0.985   6.913  1.1389  1.7354 -1.8783
 9540SOL    HW228799   4.416   0.984   6.756 -2.3761  0.7470 -1.0084
 9541SOL     OW28800   1.975   5.069   8.570  0.0084  0.0398  0.5003
 9541SOL    HW128801   2.025   5.076   8.657 -1.2222 -2.9702  1.5677
 9541SOL    HW228802   1.907   5.142   8.566  1.2400  1.2919  1.2115
 9542SOL     OW28803   0.113   7.565   4.730 -0.6603 -0.6316 -0.3984
 9542SOL    HW128804   0.162   7.632   4.786  0.3351 -0.7945 -1.0497
 9542SOL    HW228805   0.069   7.497   4.789  0.6001 -0.9627  0.1785
 9543SOL     OW28806   1.902   0.587   5.461  0.0430  0.1545 -0.1007
 9543SOL    HW128807   1.813   0.554   5.491  1.4708 -3.3569  0.7717
 9543SOL    HW228808   1.928   0.667   5.515 -1.3485 -0.5434  1.7106
 9544SOL     OW28809   6.149   2.625   8.349  0.0516  0.0746  0.0676
 9544SOL    HW128810   6.079   2.563   8.383 -1.7060  1.2219 -1.2744
 9544SOL    HW228811   6.195   2.585   8.270  0.8077 -0.6016  0.8359
 9545SOL     OW28812   6.504   1.689   0.940  0.2535  0.0750  0.2488
 9545SOL    HW128813   6.532   1.719   1.031 -0.5837 -2.5504  1.4755
 9545SOL    HW228814   6.464   1.765   0.890  3.8964  2.5142  0.6510
 9546SOL     OW28815   5.638   2.621   6.630 -0.7791 -0.5468  0.3627
 9546SOL    HW128816   5.580   2.680   6.686  0.4516 -0.3440  1.4692
 9546SOL    HW228817   5.687   2.556   6.689 -0.9307 -1.6596 -0.6782
 9547SOL     OW28818   2.597   8.321   8.706  0.1962  0.2693 -0.8103
 9547SOL    HW128819   2.522   8.382   8.734 -0.1674 -1.1006  1.4002
 9547SOL    HW228820   2.637   8.355   8.621 -1.9691  1.8631 -1.2809
 9548SOL     OW28821   1.906   0.291   6.498  0.1799  0.1351  0.5545
 9548SOL    HW128822   1.912   0.230   6.419  1.4069 -0.8413  1.3622
 9548SOL    HW228823   1.818   0.338   6.497 -0.4125 -0.9276 -0.6140
 9549SOL     OW28824   4.825   5.363   6.472 -0.2068 -0.0618  0.1785
 9549SOL    HW128825   4.859   5.455   6.489  1.0839 -0.0562 -2.1599
 9549SOL    HW228826   4.744   5.368   6.413 -0.6888 -0.4143  0.7889
 9550SOL     OW28827   0.381   4.615   3.069  0.3865  0.1948  0.2426
 9550SOL    HW128828   0.434   4.613   3.153  0.5122 -1.5420  0.1657
 9550SOL    HW228829   0.355   4.522   3.044 -1.5953  0.8706 -0.4202
 9551SOL     OW28830   2.274   6.900   0.879 -0.5027  0.0007 -0.4574
 9551SOL    HW128831   2.283   6.909   0.978 -2.6388 -0.3745 -0.1764
 9551SOL    HW228832   2.293   6.806   0.852  0.1640  0.1227 -0.4321
 9552SOL     OW28833   0.779   7.381   1.351  0.3751  0.0015 -0.4693
 9552SOL    HW128834   0.785   7.467   1.300  0.3406  0.0215 -0.4395
 9552SOL    HW228835   0.846   7.381   1.426 -1.2756  1.0175  1.0754
 9553SOL     OW28836   1.607   2.440   6.700 -0.1594  0.0938  0.5217
 9553SOL    HW128837   1.703   2.416   6.707 -0.1548  0.0882  0.4380
 9553SOL    HW228838   1.555   2.389   6.768  0.0247  0.8030  1.2189
 9554SOL     OW28839   8.122   8.391   1.901 -0.1463 -0.1469  0.3499
 9554SOL    HW128840   8.037   8.428   1.937 -1.3525 -0.4860 -1.9223
 9554SOL    HW228841   8.115   8.291   1.897  1.0258 -0.3086  1.6130
 9555SOL     OW28842   7.617   4.883   1.317  0.2753  0.2530  0.1860
 9555SOL    HW128843   7.703   4.929   1.293 -0.3264  1.5554  0.4495
 9555SOL    HW228844   7.549   4.901   1.247 -0.0370 -0.0827  0.3996
 9556SOL     OW28845   6.004   6.919   5.538  0.4037  0.1129  0.3195
 9556SOL    HW128846   6.067   6.914   5.461  0.4294 -2.1537  0.4262
 9556SOL    HW228847   5.923   6.972   5.512  0.8064  0.1260 -0.9593
 9557SOL     OW28848   4.279   7.526   3.345  0.2874 -0.5089  0.1762
 9557SOL    HW128849   4.181   7.540   3.356  0.1452  1.7804 -2.5924
 9557SOL    HW228850   4.324   7.531   3.434 -1.9949 -0.8970  1.4265
 9558SOL     OW28851   3.298   4.044   2.960 -0.2438  0.4826  0.0298
 9558SOL    HW128852   3.355   4.116   2.922 -0.6977  0.2779 -1.0703
 9558SOL    HW228853   3.333   3.955   2.931  0.9254  0.1509  2.1974
 9559SOL     OW28854   5.346   5.654   1.558 -0.3574 -0.1894 -0.4476
 9559SOL    HW128855   5.306   5.745   1.545  0.2054 -0.0130 -0.9401
 9559SOL    HW228856   5.442   5.655   1.532 -0.2330 -0.8196 -0.0323
 9560SOL     OW28857   0.415   3.636   5.958 -0.2862 -0.3851  0.0239
 9560SOL    HW128858   0.363   3.592   6.031 -0.6598  0.2137  0.1266
 9560SOL    HW228859   0.512   3.636   5.980 -0.1818 -1.8410 -0.3319
 9561SOL     OW28860   3.327   4.316   8.853 -0.7137 -0.2317 -0.7256
 9561SOL    HW128861   3.315   4.375   8.773  0.3445  0.4092 -0.4305
 9561SOL    HW228862   3.424   4.311   8.876 -1.0064 -0.3993  0.5323
 9562SOL     OW28863   0.582   6.058   2.869  0.1640 -0.4291  0.0283
 9562SOL    HW128864   0.574   6.153   2.898 -1.1282 -0.5143  0.0073
 9562SOL    HW228865   0.678   6.029   2.876  0.4246  0.5765  0.9299
 9563SOL     OW28866   6.189   3.468   0.471 -0.1864 -0.0853  0.0802
 9563SOL    HW128867   6.175   3.489   0.568 -0.3912 -0.9266  0.2442
 9563SOL    HW228868   6.118   3.404   0.440 -0.8147  1.0699 -0.9408
 9564SOL     OW28869   6.757   8.825   6.100 -0.0705  0.1837  0.5547
 9564SOL    HW128870   6.727   8.890   6.170  0.2361  0.2398  0.6366
 9564SOL    HW228871   6.856   8.819   6.101  0.0846  1.6212 -1.1376
 9565SOL     OW28872   4.044   1.631   5.863  0.1719 -0.5568 -0.3842
 9565SOL    HW128873   4.074   1.648   5.769  0.3634 -0.0093 -0.2247
 9565SOL    HW228874   4.123   1.634   5.924  0.0380 -0.8516 -0.1946
 9566SOL     OW28875   6.853   6.500   3.609 -0.0153 -0.1160 -0.1614
 9566SOL    HW128876   6.792   6.567   3.568 -1.0718  0.4674  2.1879
 9566SOL    HW228877   6.943   6.505   3.565 -1.2131 -0.0793 -2.7933
 9567SOL     OW28878   8.076   8.690   5.701  0.0123 -0.1137 -0.1259
 9567SOL    HW128879   8.015   8.686   5.780 -0.7256 -0.0684 -0.6852
 9567SOL    HW228880   8.113   8.783   5.691 -1.2164  0.3287 -0.8018
 9568SOL     OW28881   2.503   1.008   1.822 -0.6179 -0.0872  0.1565
 9568SOL    HW128882   2.501   1.099   1.863  0.1973 -0.4558  1.0738
 9568SOL    HW228883   2.454   0.944   1.882 -1.1295 -0.2811 -0.4493
 9569SOL     OW28884   1.279   0.727   7.420  0.6703  0.1443  0.2750
 9569SOL    HW128885   1.194   0.673   7.427 -0.1570  1.6034  2.3180
 9569SOL    HW228886   1.334   0.712   7.502  0.2425  2.6200  1.0769
 9570SOL     OW28887   4.426   8.661   0.617  0.5669  0.0035  0.1035
 9570SOL    HW128888   4.427   8.630   0.522 -0.5437  0.6281 -0.1250
 9570SOL    HW228889   4.404   8.758   0.620  1.0721  0.0965  0.9789
 9571SOL     OW28890   5.593   8.768   3.477 -0.2794 -0.4113 -0.5344
 9571SOL    HW128891   5.596   8.822   3.393 -1.2305  0.5664  0.0390
 9571SOL    HW228892   5.498   8.755   3.505  0.0351 -0.5095  0.5221
 9572SOL     OW28893   3.847   4.460   7.933 -0.1140  0.4467  0.2388
 9572SOL    HW128894   3.813   4.554   7.943 -2.0871 -0.0563 -1.0556
 9572SOL    HW228895   3.941   4.462   7.901  0.8192  1.9428  2.8153
 9573SOL     OW28896   5.554   7.926   1.155  0.0690 -0.2579  0.6261
 9573SOL    HW128897   5.514   7.959   1.240 -0.5802 -0.4174  0.3887
 9573SOL    HW228898   5.483   7.882   1.099 -0.1394  2.1625 -1.1865
 9574SOL     OW28899   2.916   6.130   1.240  0.2732 -0.2329 -0.4279
 9574SOL    HW128900   2.922   6.185   1.157  0.7080 -0.6886 -0.7121
 9574SOL    HW228901   3.009   6.108   1.272  0.1098 -0.0782  0.1667
 9575SOL     OW28902   2.015   3.003   0.219 -0.1478 -0.9809  0.0606
 9575SOL    HW128903   1.922   3.009   0.253 -0.4843 -0.5350 -0.8928
 9575SOL    HW228904   2.020   3.046   0.129  0.5915 -2.5411 -0.6818
 9576SOL     OW28905   2.287   5.603   0.079 -0.3498 -0.0056  0.2180
 9576SOL    HW128906   2.382   5.625   0.104 -0.3048 -0.7543  0.7482
 9576SOL    HW228907   2.231   5.598   0.162 -0.9002  0.6082 -0.1088
 9577SOL     OW28908   8.247   0.203   4.354  0.0693 -0.1644  0.6976
 9577SOL    HW128909   8.161   0.227   4.398  0.0085 -0.2624  0.6314
 9577SOL    HW228910   8.259   0.257   4.271  0.7711  0.9226  1.4847
 9578SOL     OW28911   3.969   7.670   0.431  0.0125 -0.2338 -0.0230
 9578SOL    HW128912   3.893   7.609   0.409  0.4846 -0.9162  0.2023
 9578SOL    HW228913   4.049   7.615   0.459  0.7033  0.4445 -0.6122
 9579SOL     OW28914   5.452   5.257   1.629  0.0383 -0.2150  0.2046
 9579SOL    HW128915   5.461   5.346   1.673  0.0345 -0.3464  0.4734
 9579SOL    HW228916   5.356   5.230   1.628 -0.0039 -0.0543 -0.2000
 9580SOL     OW28917   4.821   6.967   7.517 -0.0394 -0.2615 -0.3576
 9580SOL    HW128918   4.745   6.944   7.457 -0.4066 -0.8750  0.3213
 9580SOL    HW228919   4.795   6.948   7.612  0.5241  0.6806  0.0009
 9581SOL     OW28920   4.275   6.571   0.695 -0.2164  0.3924 -0.0440
 9581SOL    HW128921   4.350   6.634   0.717  0.1904 -0.2787  0.5374
 9581SOL    HW228922   4.209   6.570   0.770 -0.4208  0.4135 -0.2229
 9582SOL     OW28923   6.913   0.110   4.103  0.5132  0.2277 -0.4163
 9582SOL    HW128924   6.816   0.135   4.112  0.9340  1.5185  1.1315
 9582SOL    HW228925   6.925   0.014   4.130 -0.2601  0.2091 -0.1048
 9583SOL     OW28926   7.122   4.013   5.376  0.1782  0.4479  0.6565
 9583SOL    HW128927   7.128   4.002   5.475 -1.9330 -1.5872  0.6692
 9583SOL    HW228928   7.135   3.924   5.332  0.0199  1.1242 -0.8267
 9584SOL     OW28929   6.198   4.909   0.596  0.2250 -0.1398  0.0023
 9584SOL    HW128930   6.103   4.905   0.627 -0.3187  0.3907 -1.5333
 9584SOL    HW228931   6.251   4.964   0.660 -1.1213  1.9362 -0.5552
 9585SOL     OW28932   4.383   6.485   6.079  0.4133  0.4650 -0.2176
 9585SOL    HW128933   4.449   6.552   6.045  0.4365  0.7039  0.2934
 9585SOL    HW228934   4.378   6.408   6.015 -0.4567  1.4680 -1.4039
 9586SOL     OW28935   7.666   2.496   2.248 -0.0074  0.6984  0.1757
 9586SOL    HW128936   7.740   2.501   2.181  0.7559  0.0490  0.9491
 9586SOL    HW228937   7.580   2.525   2.205 -0.0629 -1.9919 -1.8569
 9587SOL     OW28938   4.243   4.640   4.603  0.1559 -0.0869  0.0737
 9587SOL    HW128939   4.229   4.714   4.668 -0.5521  0.6155 -0.8458
 9587SOL    HW228940   4.167   4.574   4.610  1.2658 -1.2761  1.5566
 9588SOL     OW28941   2.698   3.482   3.239  0.6349 -0.3371  0.5641
 9588SOL    HW128942   2.708   3.571   3.194 -1.0385 -1.1407 -1.5727
 9588SOL    HW228943   2.785   3.456   3.282  2.0277  1.0100 -1.3024
 9589SOL     OW28944   8.750   2.197   0.515  0.3625 -0.2953  0.4113
 9589SOL    HW128945   8.686   2.127   0.546 -1.7632  1.5007  0.2833
 9589SOL    HW228946   8.756   2.195   0.415 -2.3249  1.7397  0.1037
 9590SOL     OW28947   1.654   2.316   3.308 -0.6613  0.2838 -0.5602
 9590SOL    HW128948   1.698   2.243   3.361 -0.6885  0.2564 -0.5752
 9590SOL    HW228949   1.635   2.393   3.368  0.6114  0.8310 -0.8306
 9591SOL     OW28950   7.768   3.932   7.885  0.0335  0.0195 -0.5528
 9591SOL    HW128951   7.728   4.020   7.910 -0.3311 -0.2962  0.0077
 9591SOL    HW228952   7.708   3.884   7.822  0.9713  0.8312 -2.1223
 9592SOL     OW28953   1.183   3.930   8.037 -0.6264 -0.0509 -0.1028
 9592SOL    HW128954   1.116   3.896   7.971 -0.3648 -2.1481  0.6589
 9592SOL    HW228955   1.217   3.855   8.093  0.9315  1.2857  0.8505
 9593SOL     OW28956   2.243   2.615   1.664  0.2321 -0.0200 -0.2321
 9593SOL    HW128957   2.174   2.545   1.643 -0.0129  0.6641 -1.8628
 9593SOL    HW228958   2.204   2.681   1.728 -0.6064  0.2728 -1.0152
 9594SOL     OW28959   7.109   8.691   5.017  0.5151  0.1959 -0.1808
 9594SOL    HW128960   7.120   8.781   5.060 -1.3537 -0.3750  1.6513
 9594SOL    HW228961   7.035   8.695   4.950  0.4914  0.0670 -0.1630
 9595SOL     OW28962   6.023   2.378   2.108 -0.1929 -0.3091  0.4992
 9595SOL    HW128963   6.040   2.280   2.115  1.8294 -0.0007  0.4563
 9595SOL    HW228964   6.074   2.426   2.179  0.2184  0.8393 -0.5287
 9596SOL     OW28965   6.014   2.379   4.003 -0.7492 -0.4170 -0.0201
 9596SOL    HW128966   6.017   2.477   4.023 -1.6399 -0.3404 -0.2187
 9596SOL    HW228967   6.012   2.365   3.904 -0.6435 -0.6348  0.0082
 9597SOL     OW28968   2.989   5.261   7.513 -0.6554  0.1113 -0.0013
 9597SOL    HW128969   3.065   5.258   7.448  0.1011  0.2810  0.8512
 9597SOL    HW228970   2.971   5.356   7.538 -0.7251  0.0254  0.2785
 9598SOL     OW28971   2.829   5.705   0.113  0.5081  0.2837 -0.4097
 9598SOL    HW128972   2.764   5.754   0.171  0.6510  0.2144 -0.1898
 9598SOL    HW228973   2.894   5.656   0.170 -1.2635 -2.4464 -0.5363
 9599SOL     OW28974   6.676   1.567   2.955 -0.0408 -0.1117  0.1442
 9599SOL    HW128975   6.652   1.642   3.016 -0.8077 -0.5788  0.4366
 9599SOL    HW228976   6.748   1.596   2.892 -0.5098  0.9390  0.0830
 9600SOL     OW28977   1.283   5.556   1.225 -0.3984 -0.6208  0.1108
 9600SOL    HW128978   1.345   5.513   1.159 -1.0453 -1.0855 -0.2022
 9600SOL    HW228979   1.279   5.655   1.206  0.7297 -0.4787  0.5411
 9601SOL     OW28980   5.112   3.697   8.746  0.1425 -0.1758  0.3422
 9601SOL    HW128981   5.014   3.680   8.741  0.0350  0.4291  0.2794
 9601SOL    HW228982   5.161   3.633   8.687 -0.2843  0.0403 -0.2509
 9602SOL     OW28983   7.899   8.373   3.300 -0.1287 -0.5815 -0.1852
 9602SOL    HW128984   7.889   8.274   3.286  0.0457 -0.3296 -2.4449
 9602SOL    HW228985   7.963   8.410   3.233 -0.2078  1.0781  0.6164
 9603SOL     OW28986   4.004   3.733   8.373 -0.1621  0.2761 -0.6475
 9603SOL    HW128987   3.983   3.751   8.277 -1.2395 -2.5063 -1.0498
 9603SOL    HW228988   3.952   3.795   8.431 -0.4581  1.1829 -1.8471
 9604SOL     OW28989   0.016   7.083   5.233 -0.2106 -0.1829  0.0361
 9604SOL    HW128990   0.007   7.169   5.284 -1.1560 -0.2470 -0.0018
 9604SOL    HW228991   0.003   7.100   5.136  0.4248 -0.2485 -0.0678
 9605SOL     OW28992   2.747   4.689   8.535 -0.5857 -0.2123  0.0700
 9605SOL    HW128993   2.705   4.601   8.554  0.2669 -0.5081  0.6592
 9605SOL    HW228994   2.743   4.746   8.616  0.6837 -0.4833  0.3459
 9606SOL     OW28995   6.960   3.084   5.088 -0.1109 -0.6620 -0.0064
 9606SOL    HW128996   6.963   3.046   4.995  0.0802 -0.0509 -0.2582
 9606SOL    HW228997   7.030   3.154   5.097 -2.3981  1.8659 -0.5590
 9607SOL     OW28998   8.054   1.507   6.546 -0.3951 -0.0890 -0.0207
 9607SOL    HW128999   8.142   1.553   6.555  0.0912 -1.1305  0.8031
 9607SOL    HW229000   7.981   1.566   6.579  0.0668  0.5541 -0.1408
 9608SOL     OW29001   1.312   8.431   3.643 -0.2743  0.0727  0.0810
 9608SOL    HW129002   1.266   8.350   3.606 -0.2020  0.6104 -1.2392
 9608SOL    HW229003   1.378   8.402   3.713  0.1999 -1.0940 -0.8000
 9609SOL     OW29004   3.960   2.261   6.699  0.0430  0.2460 -0.4157
 9609SOL    HW129005   4.014   2.262   6.614  1.1156 -1.1384  0.1935
 9609SOL    HW229006   3.894   2.186   6.695  0.4730 -0.1794  0.1611
 9610SOL     OW29007   1.481   7.190   4.813  0.4052  0.0195 -0.3346
 9610SOL    HW129008   1.480   7.286   4.842 -0.7335  0.1781 -0.8279
 9610SOL    HW229009   1.542   7.179   4.734  0.8388  0.2527 -0.0361
 9611SOL     OW29010   5.261   5.545   7.273 -0.2605  0.1131 -0.2082
 9611SOL    HW129011   5.322   5.477   7.314 -0.8325 -0.0064  0.4399
 9611SOL    HW229012   5.179   5.500   7.238  0.3372  0.1607 -1.7855
 9612SOL     OW29013   3.863   2.654   3.113  0.2015 -0.2392 -0.2730
 9612SOL    HW129014   3.949   2.603   3.106 -0.4473 -1.2382 -1.1498
 9612SOL    HW229015   3.788   2.590   3.132 -0.3572  0.6262  0.5146
 9613SOL     OW29016   5.766   8.216   3.726  0.1754  0.3162  0.5341
 9613SOL    HW129017   5.815   8.205   3.639  0.1238  0.5009  0.4794
 9613SOL    HW229018   5.700   8.291   3.717  1.3910  1.5243  1.2602
 9614SOL     OW29019   1.853   4.020   7.511  0.0180  0.0719  0.1772
 9614SOL    HW129020   1.854   3.948   7.582 -2.6841  0.6243  0.8811
 9614SOL    HW229021   1.865   4.109   7.555  0.0881  0.2864 -0.2808
 9615SOL     OW29022   5.284   6.040   2.202  0.9295 -0.4752  0.0125
 9615SOL    HW129023   5.334   6.016   2.286 -0.6772 -2.1561  0.5432
 9615SOL    HW229024   5.322   5.988   2.125  1.0050 -0.5760  0.1173
 9616SOL     OW29025   3.257   3.958   1.775  0.2686 -0.3642 -0.2785
 9616SOL    HW129026   3.296   3.891   1.839 -3.8463 -1.2907  1.5629
 9616SOL    HW229027   3.252   3.918   1.684  1.9067 -0.8032 -0.2144
 9617SOL     OW29028   2.090   2.986   5.556  0.8808 -0.2102  0.4835
 9617SOL    HW129029   2.056   2.935   5.635  0.8863  0.7611  1.1324
 9617SOL    HW229030   2.078   3.084   5.572  1.1047  0.0125 -0.6263
 9618SOL     OW29031   8.758   4.418   8.844  0.2745  0.4464  0.0561
 9618SOL    HW129032   8.704   4.355   8.787 -0.6272 -0.6670  2.0357
 9618SOL    HW229033   8.710   4.505   8.851 -1.3901 -0.5392  1.8232
 9619SOL     OW29034   1.225   5.559   7.196 -0.0974  0.6217  0.2795
 9619SOL    HW129035   1.173   5.548   7.280 -1.2432  1.5395 -0.2887
 9619SOL    HW229036   1.165   5.545   7.117  0.6077  1.2842 -0.3927
 9620SOL     OW29037   7.426   7.412   4.049 -0.2212  0.0130 -0.7318
 9620SOL    HW129038   7.420   7.447   4.142  0.0984  1.4568 -1.2137
 9620SOL    HW229039   7.334   7.400   4.012 -0.3879 -1.9165  0.2090
 9621SOL     OW29040   8.010   8.640   8.448  0.3765  0.1537 -0.1818
 9621SOL    HW129041   8.030   8.707   8.519  0.4445  2.2540 -2.0653
 9621SOL    HW229042   7.914   8.613   8.454  0.2130  0.8074  0.3044
 9622SOL     OW29043   6.408   8.533   6.073  0.3353  0.5737  0.5762
 9622SOL    HW129044   6.364   8.609   6.120  0.9691  1.8168 -0.7827
 9622SOL    HW229045   6.507   8.548   6.069  0.5795 -0.7529  1.0386
 9623SOL     OW29046   6.882   1.980   6.132 -0.1702  0.0253 -0.3726
 9623SOL    HW129047   6.802   1.926   6.108 -0.0423  0.8186 -2.9438
 9623SOL    HW229048   6.859   2.046   6.203 -0.8930 -1.8436  1.2179
 9624SOL     OW29049   8.678   6.938   2.592  0.3736 -0.9278 -0.2119
 9624SOL    HW129050   8.638   7.029   2.579  0.1565 -0.8489  0.8973
 9624SOL    HW229051   8.635   6.873   2.530 -0.4375 -0.5371 -0.0648
 9625SOL     OW29052   2.171   1.231   8.570  0.2363 -0.1983  0.4077
 9625SOL    HW129053   2.090   1.266   8.523 -1.7897 -0.9069  3.1376
 9625SOL    HW229054   2.208   1.153   8.518 -0.8553  0.0744 -0.8487
 9626SOL     OW29055   0.394   2.774   0.627  0.5407  0.3695  0.2946
 9626SOL    HW129056   0.371   2.829   0.547 -0.9990 -0.4172  0.1598
 9626SOL    HW229057   0.314   2.765   0.686  0.8759 -1.3218  0.5533
 9627SOL     OW29058   0.823   5.189   6.537  0.2202 -0.0298 -0.0426
 9627SOL    HW129059   0.798   5.210   6.443 -0.0552  0.2343  0.0873
 9627SOL    HW229060   0.750   5.135   6.579 -0.5209  1.3697  0.5680
 9628SOL     OW29061   7.660   4.907   6.628  0.1871 -0.2435 -0.7485
 9628SOL    HW129062   7.712   4.919   6.544 -1.5949 -0.1348 -1.8930
 9628SOL    HW229063   7.633   4.811   6.636  0.9325 -0.3988  0.0932
 9629SOL     OW29064   1.493   4.666   3.264  0.4344 -0.8201  0.5385
 9629SOL    HW129065   1.582   4.708   3.283  0.1906 -0.2309  0.4210
 9629SOL    HW229066   1.478   4.590   3.327  0.1878  0.3171  1.9162
 9630SOL     OW29067   5.199   2.859   6.699  0.2116  0.1408  0.3419
 9630SOL    HW129068   5.118   2.811   6.733  0.0938 -0.4995 -0.7674
 9630SOL    HW229069   5.280   2.805   6.720  0.2478  0.2838  0.5681
 9631SOL     OW29070   2.514   2.439   8.456  0.2114  0.1039  0.6722
 9631SOL    HW129071   2.593   2.379   8.451 -0.2356 -0.5180  0.9805
 9631SOL    HW229072   2.463   2.434   8.370 -0.0039 -0.2145  0.8155
 9632SOL     OW29073   2.390   1.314   6.098 -0.3222  0.2263  0.1545
 9632SOL    HW129074   2.412   1.239   6.161 -0.2787  0.8080  0.8489
 9632SOL    HW229075   2.291   1.327   6.095 -0.3053  0.3978  0.3387
 9633SOL     OW29076   7.112   0.538   7.116  0.3202  0.4727 -0.2185
 9633SOL    HW129077   7.151   0.501   7.032  1.2261  0.3206  0.2563
 9633SOL    HW229078   7.035   0.480   7.145  0.1301  0.4167 -0.8282
 9634SOL     OW29079   1.807   6.610   4.688 -0.2148 -0.2861  0.2959
 9634SOL    HW129080   1.801   6.555   4.771  0.0698  0.8829  1.1171
 9634SOL    HW229081   1.828   6.551   4.610  0.1179 -1.3266  1.1510
 9635SOL     OW29082   6.162   0.084   3.676  0.1257  0.1108  1.0194
 9635SOL    HW129083   6.168   0.140   3.593 -2.2243 -0.7842  0.1491
 9635SOL    HW229084   6.206  -0.004   3.659  0.1298  0.1303  0.9235
 9636SOL     OW29085   2.715   0.091   4.071  0.8038 -0.0059 -0.9950
 9636SOL    HW129086   2.643   0.107   4.139  0.3458 -2.1686 -0.9193
 9636SOL    HW229087   2.787   0.035   4.111  0.3376 -1.6636 -2.3420
 9637SOL     OW29088   3.171   4.290   5.357  0.2810  0.4590 -0.7431
 9637SOL    HW129089   3.221   4.376   5.351 -0.1960  0.9944  1.6709
 9637SOL    HW229090   3.217   4.220   5.303  0.7716  2.1641 -2.6298
 9638SOL     OW29091   4.396   6.387   6.772  0.0989 -0.0878 -0.2822
 9638SOL    HW129092   4.376   6.295   6.739  1.0851  0.3320 -2.1598
 9638SOL    HW229093   4.366   6.454   6.705  0.9683  0.8751  0.2663
 9639SOL     OW29094   4.549   5.038   1.260 -0.0084  0.3856  0.4238
 9639SOL    HW129095   4.588   5.101   1.327  1.4217  0.1522 -0.1486
 9639SOL    HW229096   4.613   5.027   1.184 -0.8659 -0.6518 -0.1682
 9640SOL     OW29097   6.291   7.834   5.757 -0.1715 -0.0900 -0.1179
 9640SOL    HW129098   6.218   7.838   5.826  0.3005 -0.4885  0.4174
 9640SOL    HW229099   6.352   7.757   5.778 -0.4833 -0.7279 -1.4471
 9641SOL     OW29100   8.490   2.358   6.658  0.0771 -0.7726 -0.2257
 9641SOL    HW129101   8.477   2.330   6.753  1.7353 -1.1520 -0.0873
 9641SOL    HW229102   8.497   2.277   6.600 -0.1020 -0.5524 -0.5588
 9642SOL     OW29103   5.066   3.987   7.906  0.1692  0.8703 -0.3164
 9642SOL    HW129104   5.093   4.001   8.002 -2.2779 -0.1106  0.5814
 9642SOL    HW229105   4.990   4.048   7.884 -0.5896 -0.2862 -1.0017
 9643SOL     OW29106   8.727   5.316   0.120 -0.6063  0.0266 -0.1366
 9643SOL    HW129107   8.798   5.380   0.089 -0.1143 -0.4217  0.0439
 9643SOL    HW229108   8.669   5.362   0.187 -0.5034  0.4084 -0.3037
 9644SOL     OW29109   4.915   0.863   5.082  0.3454 -0.0357  0.3531
 9644SOL    HW129110   5.002   0.850   5.129  0.1791  0.0505  0.6919
 9644SOL    HW229111   4.881   0.955   5.101 -0.5933 -0.5936  1.5462
 9645SOL     OW29112   5.954   2.097   6.145  0.0402 -0.0784  0.0794
 9645SOL    HW129113   5.866   2.085   6.191 -0.2170 -0.3282 -0.4578
 9645SOL    HW229114   6.004   2.173   6.186 -0.5383  0.2247  0.2306
 9646SOL     OW29115   5.871   3.615   8.848 -0.1395 -0.4953  0.1794
 9646SOL    HW129116   5.861   3.641   8.752 -1.2750 -0.2721  0.3540
 9646SOL    HW229117   5.784   3.626   8.896  0.8290  1.2222  1.6898
 9647SOL     OW29118   1.681   4.731   4.156  0.1902 -0.0336  0.0501
 9647SOL    HW129119   1.633   4.653   4.196  1.9050 -0.1882  2.0185
 9647SOL    HW229120   1.728   4.701   4.072 -2.3976 -0.0394 -1.4972
 9648SOL     OW29121   1.174   7.415   5.542 -0.1674  0.6883  0.2397
 9648SOL    HW129122   1.141   7.464   5.623  0.6311  2.2449 -0.3390
 9648SOL    HW229123   1.161   7.472   5.461  0.8929 -0.0222 -0.4562
 9649SOL     OW29124   6.736   3.767   4.814 -0.5469  0.1191 -0.4200
 9649SOL    HW129125   6.805   3.713   4.862 -0.7751  0.1010 -0.1093
 9649SOL    HW229126   6.781   3.831   4.752 -0.2850 -1.6787 -2.1860
 9650SOL     OW29127   0.734   6.368   5.206 -0.0779 -0.1698 -0.7992
 9650SOL    HW129128   0.740   6.323   5.117 -2.3209 -1.7826 -0.2216
 9650SOL    HW229129   0.648   6.342   5.251  0.5572  1.3311  1.4542
 9651SOL     OW29130   4.718   1.533   0.630 -0.1786 -0.2113 -0.3521
 9651SOL    HW129131   4.778   1.518   0.551  0.9713 -2.6501  0.8924
 9651SOL    HW229132   4.633   1.482   0.616 -0.3858  0.1496 -0.4241
 9652SOL     OW29133   6.356   0.424   6.561 -0.0743  0.3563  0.2521
 9652SOL    HW129134   6.418   0.357   6.602  1.1396  2.2772  1.7190
 9652SOL    HW229135   6.274   0.378   6.527  0.6068 -1.8106  1.4011
 9653SOL     OW29136   2.616   4.551   5.442  0.8030  0.1627  0.2019
 9653SOL    HW129137   2.693   4.539   5.379  0.8856  3.2532 -0.4080
 9653SOL    HW229138   2.541   4.493   5.413  2.1298 -1.3139 -0.4566
 9654SOL     OW29139   7.608   7.375   1.788 -0.1906 -0.3450 -0.5999
 9654SOL    HW129140   7.673   7.380   1.864 -1.2615 -1.7920  0.4635
 9654SOL    HW229141   7.516   7.395   1.822 -0.5323  0.1447 -1.7734
 9655SOL     OW29142   0.928   5.867   8.649  0.0402  0.1294 -0.4014
 9655SOL    HW129143   0.892   5.800   8.584  1.6742 -0.3919 -0.8117
 9655SOL    HW229144   0.989   5.821   8.714  2.0927  1.3294 -1.3753
 9656SOL     OW29145   5.647   3.993   0.398  0.2745 -0.1408 -0.4689
 9656SOL    HW129146   5.692   4.062   0.342 -3.4412  2.1835 -0.9418
 9656SOL    HW229147   5.669   4.009   0.494  2.1108 -0.5212 -0.7871
 9657SOL     OW29148   3.873   2.146   0.219  0.1255 -0.4542 -0.5172
 9657SOL    HW129149   3.927   2.118   0.299  1.2439 -0.0199 -1.0976
 9657SOL    HW229150   3.909   2.232   0.183 -0.8376 -0.2583 -1.0593
 9658SOL     OW29151   3.964   5.579   3.454 -0.6030  0.6634 -0.1566
 9658SOL    HW129152   4.042   5.607   3.509 -0.2416  0.6672 -0.6636
 9658SOL    HW229153   3.944   5.482   3.471  0.7216  0.1208 -1.4259
 9659SOL     OW29154   7.808   1.454   2.912 -0.1582  0.3276 -0.3164
 9659SOL    HW129155   7.880   1.448   2.981 -0.4600  0.9535  0.0560
 9659SOL    HW229156   7.801   1.366   2.864  0.6839  0.1816 -0.1930
 9660SOL     OW29157   0.525   5.725   3.922 -0.1214 -1.1095 -0.2966
 9660SOL    HW129158   0.453   5.670   3.964  0.2569 -1.6876 -0.3864
 9660SOL    HW229159   0.528   5.708   3.824  0.4863 -1.5016 -0.2154
 9661SOL     OW29160   2.157   7.398   7.876 -0.0918  0.3027 -0.0665
 9661SOL    HW129161   2.245   7.423   7.834 -0.5698 -0.2462 -1.4412
 9661SOL    HW229162   2.163   7.410   7.975  1.4922  0.3979 -0.1493
 9662SOL     OW29163   8.445   7.261   5.307 -0.3658  0.6439  0.2602
 9662SOL    HW129164   8.478   7.175   5.267  0.6994  0.6416  1.1028
 9662SOL    HW229165   8.419   7.323   5.234 -2.2623 -0.7777 -0.3698
 9663SOL     OW29166   0.767   4.422   3.594  0.0430  0.0456 -0.1948
 9663SOL    HW129167   0.746   4.334   3.552  1.5326 -1.0416  1.1882
 9663SOL    HW229168   0.690   4.451   3.651  0.1662 -1.2562  0.6959
 9664SOL     OW29169   4.722   4.312   3.037 -0.2167 -0.6139  0.7951
 9664SOL    HW129170   4.624   4.300   3.022 -0.1281 -2.0460  1.1938
 9664SOL    HW229171   4.740   4.324   3.134  0.0638 -1.1973  0.8204
 9665SOL     OW29172   4.559   3.882   0.276 -0.1577  0.0404  0.2292
 9665SOL    HW129173   4.533   3.951   0.344  2.7754  1.0238  0.4758
 9665SOL    HW229174   4.594   3.801   0.322  1.1246  0.4087 -0.0721
 9666SOL     OW29175   7.554   6.949   7.569  0.0279  0.2977 -0.4556
 9666SOL    HW129176   7.620   6.947   7.494  0.8859  2.1178  0.1899
 9666SOL    HW229177   7.557   7.039   7.613 -1.1807 -0.3975  1.1233
 9667SOL     OW29178   8.230   0.077   5.768 -0.5339  0.2397 -0.0528
 9667SOL    HW129179   8.228   0.113   5.861 -1.3157 -0.2048  0.1121
 9667SOL    HW229180   8.316   0.102   5.724 -0.1331  0.4027  0.8115
 9668SOL     OW29181   1.200   1.641   1.487 -0.2664 -0.0216  0.1793
 9668SOL    HW129182   1.225   1.545   1.499  0.9275  0.0920 -1.0906
 9668SOL    HW229183   1.206   1.664   1.390  0.0924  1.5056  0.5452
 9669SOL     OW29184   2.270   5.810   2.750  0.5656  0.1023  0.0262
 9669SOL    HW129185   2.178   5.778   2.727  0.6381  0.0888 -0.2465
 9669SOL    HW229186   2.264   5.881   2.820  0.3096  0.5143 -0.4126
 9670SOL     OW29187   3.533   2.016   0.038 -1.0521 -0.1752  0.1243
 9670SOL    HW129188   3.628   2.046   0.027 -1.3278  1.6995  2.0824
 9670SOL    HW229189   3.474   2.095   0.051 -2.9345 -1.3003 -1.0597
 9671SOL     OW29190   5.336   8.665   6.580 -0.1877  0.0054  0.1880
 9671SOL    HW129191   5.378   8.755   6.591  0.9360 -0.7362  2.7695
 9671SOL    HW229192   5.353   8.631   6.487  0.1436  2.0397 -0.5434
 9672SOL     OW29193   5.628   4.151   2.047 -0.7413  0.5093 -0.1804
 9672SOL    HW129194   5.718   4.110   2.059 -1.2197 -2.0138 -3.5853
 9672SOL    HW229195   5.637   4.242   2.006  0.2193  1.6160  2.3102
 9673SOL     OW29196   6.774   5.801   8.699  0.2078  0.1957 -0.2773
 9673SOL    HW129197   6.777   5.703   8.679  1.0116  0.6870 -2.9638
 9673SOL    HW229198   6.867   5.834   8.718 -0.0033  0.5291  0.1991
 9674SOL     OW29199   4.886   3.035   6.737  0.2860 -0.0767  0.7388
 9674SOL    HW129200   4.794   3.064   6.710  0.2174  1.2060  2.2186
 9674SOL    HW229201   4.926   2.979   6.664 -0.8580  1.0497 -0.8240
 9675SOL     OW29202   8.238   6.407   5.150 -0.1613  0.0905 -0.2327
 9675SOL    HW129203   8.332   6.416   5.181 -0.2192  0.6023 -0.2015
 9675SOL    HW229204   8.197   6.497   5.139 -1.2047 -0.1317  1.4342
 9676SOL     OW29205   1.514   5.518   8.200 -0.3175 -0.5307 -0.2028
 9676SOL    HW129206   1.579   5.535   8.126  0.0990 -2.3995 -0.3003
 9676SOL    HW229207   1.429   5.484   8.162  0.1312 -2.1518  0.1851
 9677SOL     OW29208   5.854   7.194   1.168  0.1838 -0.3102 -0.1424
 9677SOL    HW129209   5.804   7.120   1.213  0.4854 -1.0528 -1.0130
 9677SOL    HW229210   5.892   7.255   1.238  0.6967 -1.4751  0.6405
 9678SOL     OW29211   3.420   5.347   1.823 -0.2065 -0.3583 -0.0552
 9678SOL    HW129212   3.456   5.300   1.904  0.8139  1.5024  0.6398
 9678SOL    HW229213   3.346   5.293   1.783 -1.4881 -0.8885  2.7432
 9679SOL     OW29214   5.606   0.655   0.683 -0.2674  0.0578  0.5119
 9679SOL    HW129215   5.625   0.649   0.585 -0.4337 -0.6812  0.5224
 9679SOL    HW229216   5.551   0.736   0.701 -0.9842 -0.2731 -0.1238
 9680SOL     OW29217   3.222   6.655   5.046 -0.1013  0.2654  0.0267
 9680SOL    HW129218   3.168   6.574   5.022 -0.8566  0.6428  0.3968
 9680SOL    HW229219   3.319   6.631   5.050 -0.2024 -0.3647 -0.9526
 9681SOL     OW29220   3.213   7.871   0.848 -0.5840 -0.1676 -0.2150
 9681SOL    HW129221   3.172   7.797   0.796 -0.4916 -0.0732 -0.4242
 9681SOL    HW229222   3.211   7.955   0.794 -2.5115  0.4916  0.7420
 9682SOL     OW29223   1.213   4.147   1.645  0.6154 -0.4046  0.1586
 9682SOL    HW129224   1.244   4.053   1.659  1.1731 -0.0744  1.2172
 9682SOL    HW229225   1.195   4.161   1.547 -0.5791 -1.9274  0.1283
 9683SOL     OW29226   8.175   6.745   3.068  0.1051 -0.3560 -0.2098
 9683SOL    HW129227   8.082   6.763   3.037  0.6275  0.5870 -1.2974
 9683SOL    HW229228   8.224   6.694   2.997  0.7352  0.0923 -0.1024
 9684SOL     OW29229   7.655   6.953   3.103  0.1124  0.1243 -0.1375
 9684SOL    HW129230   7.661   6.903   3.190  1.5075 -0.2484 -0.4390
 9684SOL    HW229231   7.584   7.024   3.111 -2.0569 -1.9628  0.2391
 9685SOL     OW29232   7.384   8.861   7.815  0.0123 -0.4934  0.2663
 9685SOL    HW129233   7.311   8.930   7.811  1.5000  1.1036 -0.8053
 9685SOL    HW229234   7.410   8.836   7.722  1.7732  0.0193  0.5926
 9686SOL     OW29235   2.961   3.083   0.529  0.2452 -0.0321  0.0629
 9686SOL    HW129236   3.033   3.031   0.483  1.8157  0.5535  1.7110
 9686SOL    HW229237   2.907   3.022   0.586 -0.0733 -0.3565 -0.5795
 9687SOL     OW29238   3.582   3.678   5.960  0.1807 -0.2133 -0.2439
 9687SOL    HW129239   3.518   3.721   6.023  0.1272 -2.0639  1.0642
 9687SOL    HW229240   3.674   3.715   5.975 -0.1644  0.7613 -0.4780
 9688SOL     OW29241   3.623   2.119   3.584  0.2918  0.2609 -0.0648
 9688SOL    HW129242   3.658   2.110   3.490  0.5585 -4.0870  0.2440
 9688SOL    HW229243   3.534   2.164   3.582 -0.4712 -1.1618 -2.6873
 9689SOL     OW29244   5.747   6.492   6.947  0.3739  0.2209 -0.1029
 9689SOL    HW129245   5.826   6.545   6.917  0.6648 -0.4727 -0.5872
 9689SOL    HW229246   5.750   6.482   7.046  0.8221  0.3194 -0.1027
 9690SOL     OW29247   8.559   2.085   6.899  0.2958  0.1033  0.2359
 9690SOL    HW129248   8.615   2.155   6.945 -0.0647  0.8492 -0.4368
 9690SOL    HW229249   8.472   2.075   6.948  0.3440  0.1277  0.3286
 9691SOL     OW29250   5.212   5.077   2.702 -0.0285  0.4902  0.6633
 9691SOL    HW129251   5.268   5.133   2.763 -0.2254  1.8184 -0.3286
 9691SOL    HW229252   5.118   5.075   2.737 -0.3298  1.9328  0.0076
 9692SOL     OW29253   4.236   5.708   4.000  0.0594 -0.2259 -0.4404
 9692SOL    HW129254   4.222   5.753   3.911  0.3808  0.3177 -0.2184
 9692SOL    HW229255   4.171   5.632   4.009 -0.3329  0.0437 -0.9204
 9693SOL     OW29256   5.252   2.793   0.505 -0.2022 -0.0839 -0.4115
 9693SOL    HW129257   5.300   2.835   0.582 -1.3528 -0.4293  0.5281
 9693SOL    HW229258   5.230   2.863   0.437 -0.7795  0.5757  0.4338
 9694SOL     OW29259   6.802   2.095   2.231 -0.2122 -0.0897  0.0217
 9694SOL    HW129260   6.802   2.189   2.266 -0.7285  0.3765 -1.1545
 9694SOL    HW229261   6.814   2.031   2.306 -2.1144  0.8189  1.1714
 9695SOL     OW29262   2.220   0.839   4.991  0.1025 -0.1612  0.6375
 9695SOL    HW129263   2.196   0.781   4.913  1.0939 -0.5986  0.6442
 9695SOL    HW229264   2.315   0.821   5.018 -0.0934  0.2912  1.6759
 9696SOL     OW29265   3.326   6.680   2.309 -0.6541  0.5976  0.3770
 9696SOL    HW129266   3.280   6.591   2.300 -1.3501  0.8296  1.4570
 9696SOL    HW229267   3.399   6.674   2.377  1.1100  0.1809 -1.4758
 9697SOL     OW29268   0.973   7.450   7.005  0.1612 -0.2216 -0.6663
 9697SOL    HW129269   1.069   7.467   6.983  0.5263 -0.4790  0.6219
 9697SOL    HW229270   0.967   7.370   7.065 -0.6744  0.8756  0.7679
 9698SOL     OW29271   7.065   1.320   0.249  0.3812  0.1531 -0.0526
 9698SOL    HW129272   7.145   1.355   0.298  0.3160  0.4568 -0.1617
 9698SOL    HW229273   7.094   1.272   0.166  0.4908 -0.3337  0.2625
 9699SOL     OW29274   3.057   8.624   6.820  0.1340  0.2226  0.1674
 9699SOL    HW129275   3.014   8.674   6.745  0.9202  0.4973 -0.1030
 9699SOL    HW229276   3.056   8.526   6.799  1.2274  0.3746 -0.6669
 9700SOL     OW29277   2.463   0.262   7.002  0.0423 -0.1696 -0.1952
 9700SOL    HW129278   2.513   0.304   7.078  0.8012 -1.6507  0.1618
 9700SOL    HW229279   2.403   0.330   6.960 -0.1810  0.7623  1.5406
 9701SOL     OW29280   1.286   3.603   8.605 -0.2749  0.1603  0.3766
 9701SOL    HW129281   1.360   3.610   8.539  0.1871  1.6521  1.0048
 9701SOL    HW229282   1.245   3.512   8.600  0.4594 -0.1173 -1.1730
 9702SOL     OW29283   0.065   2.249   3.849  0.9043 -0.1302 -0.3132
 9702SOL    HW129284   0.012   2.318   3.800 -0.1257 -1.2253 -0.7942
 9702SOL    HW229285   0.060   2.266   3.947 -0.0257  0.0069 -0.3805
 9703SOL     OW29286   7.144   5.065   3.432  0.1465  0.1799 -0.1220
 9703SOL    HW129287   7.070   5.016   3.478 -0.1037  0.5076 -0.1686
 9703SOL    HW229288   7.175   5.140   3.490 -0.8111  1.1847 -0.8649
 9704SOL     OW29289   6.232   1.810   4.197  0.1266  0.3414  0.7243
 9704SOL    HW129290   6.256   1.838   4.290 -1.4150 -2.2315  1.9915
 9704SOL    HW229291   6.285   1.729   4.171 -0.6029  0.0863 -0.0125
 9705SOL     OW29292   8.497   0.612   3.523  0.0088  0.5271  0.9472
 9705SOL    HW129293   8.453   0.553   3.455  0.9166 -0.2913  1.0543
 9705SOL    HW229294   8.572   0.662   3.481  0.2022  0.4608  1.2113
 9706SOL     OW29295   2.901   8.136   5.976  0.0967 -0.1382  0.1247
 9706SOL    HW129296   2.947   8.222   5.954  0.5133 -0.2800  0.4396
 9706SOL    HW229297   2.813   8.156   6.019  0.1330  0.1332  0.0773
 9707SOL     OW29298   2.053   8.190   2.342  1.0260 -0.0813  0.4367
 9707SOL    HW129299   2.134   8.152   2.386  1.8042  0.4271 -0.4978
 9707SOL    HW229300   2.078   8.273   2.292 -0.3780  0.9521  1.3681
 9708SOL     OW29301   5.037   1.939   7.322  0.5123 -0.1248 -0.1849
 9708SOL    HW129302   5.110   1.899   7.266  1.1410  1.5000 -0.5705
 9708SOL    HW229303   5.008   2.026   7.281 -3.0228 -1.5892 -1.1605
 9709SOL     OW29304   4.538   5.290   8.587 -0.2396  0.0252  0.1263
 9709SOL    HW129305   4.521   5.244   8.674 -1.6663 -0.3316 -0.3219
 9709SOL    HW229306   4.578   5.224   8.522  0.0818  0.0866  0.2591
 9710SOL     OW29307   4.021   6.361   5.911  0.2742  0.1323  0.2128
 9710SOL    HW129308   3.957   6.423   5.957 -0.0826 -1.1421  1.5131
 9710SOL    HW229309   3.980   6.270   5.905  1.8888 -0.6822  0.9231
 9711SOL     OW29310   5.757   2.329   7.187 -0.4479  0.2938  0.5722
 9711SOL    HW129311   5.752   2.357   7.091 -4.0717 -2.7379 -0.3811
 9711SOL    HW229312   5.688   2.378   7.240 -0.6546 -0.3101  0.8768
 9712SOL     OW29313   8.723   7.251   8.853  0.1183  0.3249 -0.5395
 9712SOL    HW129314   8.664   7.194   8.909  1.0191  0.9646  1.1340
 9712SOL    HW229315   8.693   7.346   8.859  0.0081  0.3603 -1.4618
 9713SOL     OW29316   7.716   8.438   5.497  0.1861  0.1670 -0.1320
 9713SOL    HW129317   7.808   8.455   5.462 -0.0772  0.4740 -0.6829
 9713SOL    HW229318   7.673   8.365   5.444 -0.6863  1.4935 -1.3159
 9714SOL     OW29319   2.344   8.174   8.490 -0.1096 -0.3567 -0.4632
 9714SOL    HW129320   2.393   8.254   8.456 -0.1972 -0.1203 -0.0467
 9714SOL    HW229321   2.318   8.115   8.414 -2.2216  1.2283 -1.0646
 9715SOL     OW29322   5.715   3.960   5.568 -0.0949  0.8045  0.0670
 9715SOL    HW129323   5.720   3.862   5.585  2.1734  0.7686 -0.5196
 9715SOL    HW229324   5.720   4.010   5.654  1.9390  0.4447  0.1876
 9716SOL     OW29325   4.952   1.876   6.968 -0.0599  0.4054  0.1818
 9716SOL    HW129326   4.909   1.842   6.884 -1.8982 -0.5705  1.4483
 9716SOL    HW229327   4.905   1.959   6.999  1.1571  1.2576 -0.1664
 9717SOL     OW29328   8.751   5.026   4.572 -0.1583 -0.6599  0.3717
 9717SOL    HW129329   8.825   4.964   4.599  0.9714  0.3596 -0.2852
 9717SOL    HW229330   8.710   4.994   4.487 -1.1271 -1.7480  1.2275
 9718SOL     OW29331   4.641   5.505   3.150 -0.1355  0.2342  0.0009
 9718SOL    HW129332   4.734   5.509   3.187 -0.0659 -0.6020 -0.0545
 9718SOL    HW229333   4.578   5.473   3.221 -0.5177  1.4880  0.2524
 9719SOL     OW29334   8.337   5.853   2.589  0.4347  0.9744 -0.6335
 9719SOL    HW129335   8.264   5.820   2.529  0.5499  0.5373 -0.5359
 9719SOL    HW229336   8.381   5.933   2.547  1.2136  0.0431 -1.6484
 9720SOL     OW29337   3.434   8.196   5.743  0.7040  1.0847 -0.3268
 9720SOL    HW129338   3.532   8.213   5.735  1.0224 -0.6357 -0.2911
 9720SOL    HW229339   3.405   8.131   5.673 -0.5745  2.0946 -0.7950
 9721SOL     OW29340   4.066   3.041   8.837  0.0998 -0.1357 -0.0510
 9721SOL    HW129341   4.018   3.075   8.756 -1.3676 -0.1140  0.7894
 9721SOL    HW229342   4.003   2.986   8.893  0.9212  0.2671  1.3236
 9722SOL     OW29343   8.207   1.379   6.795 -0.0935 -0.4241 -0.2932
 9722SOL    HW129344   8.233   1.401   6.889  0.5766 -1.2568 -0.2773
 9722SOL    HW229345   8.286   1.345   6.745 -0.7920 -1.5798 -0.6687
 9723SOL     OW29346   4.334   6.947   5.191 -1.1572 -0.5752 -0.0326
 9723SOL    HW129347   4.281   7.009   5.133 -2.5026 -1.3085  0.3669
 9723SOL    HW229348   4.315   6.853   5.165 -0.1563 -0.8647  0.2355
 9724SOL     OW29349   6.022   4.100   5.713 -0.5221  0.4364  0.2514
 9724SOL    HW129350   5.929   4.130   5.737 -0.5249  1.3963 -0.8210
 9724SOL    HW229351   6.017   4.023   5.649 -0.5663  0.0832  0.6779
 9725SOL     OW29352   6.949   8.673   2.214 -0.3659  0.0263 -0.3979
 9725SOL    HW129353   6.862   8.669   2.264  0.0992  1.5151  0.6111
 9725SOL    HW229354   6.933   8.650   2.118 -1.6408 -0.9366  0.0082
 9726SOL     OW29355   5.209   5.888   1.529  0.2566 -0.5374  0.1173
 9726SOL    HW129356   5.160   5.936   1.456  0.1643 -1.4424 -0.4329
 9726SOL    HW229357   5.168   5.910   1.617  1.3650  1.8574  0.1197
 9727SOL     OW29358   4.324   7.377   4.807  0.4025  0.3486 -0.0265
 9727SOL    HW129359   4.248   7.434   4.840  1.1875  0.9335  0.8111
 9727SOL    HW229360   4.310   7.357   4.710 -0.8426  0.4135  0.1161
 9728SOL     OW29361   6.806   3.217   2.607  0.6146 -0.0298  0.3565
 9728SOL    HW129362   6.819   3.162   2.524 -2.1176  0.4652 -0.5251
 9728SOL    HW229363   6.816   3.314   2.585  2.2454  0.0135  1.1846
 9729SOL     OW29364   0.247   1.211   5.539 -0.4050  0.1277  0.0946
 9729SOL    HW129365   0.230   1.297   5.588  2.1745  1.8985 -1.8362
 9729SOL    HW229366   0.257   1.229   5.442 -0.5580 -2.5377 -0.5020
 9730SOL     OW29367   8.032   8.006   5.634  0.7533 -0.6720  0.5813
 9730SOL    HW129368   8.025   7.948   5.553  0.7696  0.8172 -0.5147
 9730SOL    HW229369   7.947   8.057   5.647  1.2707  0.1878  0.6549
 9731SOL     OW29370   6.704   5.500   3.163  0.4816 -0.4162  0.7019
 9731SOL    HW129371   6.754   5.544   3.089 -0.6385 -1.0412 -0.4768
 9731SOL    HW229372   6.759   5.502   3.247  1.7759  0.3186 -0.1312
 9732SOL     OW29373   3.869   0.711   0.136  0.6419 -0.2154  0.0970
 9732SOL    HW129374   3.801   0.782   0.154  1.1570  0.3656 -0.1998
 9732SOL    HW229375   3.930   0.741   0.062  0.5233 -1.2098 -0.4219
 9733SOL     OW29376   7.234   6.177   3.970 -0.1977 -0.5590 -0.2779
 9733SOL    HW129377   7.158   6.234   4.002  1.0269  0.9382  0.0685
 9733SOL    HW229378   7.203   6.081   3.965 -2.4251  0.1302 -1.2584
 9734SOL     OW29379   4.668   4.317   5.656 -0.0678 -0.2777  0.3306
 9734SOL    HW129380   4.685   4.378   5.578 -0.9563 -0.0368  0.3086
 9734SOL    HW229381   4.648   4.225   5.623 -1.4712  0.0576  0.2022
 9735SOL     OW29382   0.098   1.920   1.205 -0.4701 -0.6404 -0.0519
 9735SOL    HW129383   0.122   1.839   1.260  0.0886 -1.0839 -0.9173
 9735SOL    HW229384   0.093   2.000   1.264  2.1648 -0.7177  0.3918
 9736SOL     OW29385   0.665   4.529   5.591 -0.2458 -0.1668 -0.5178
 9736SOL    HW129386   0.696   4.574   5.675  0.6579 -2.1815  0.2823
 9736SOL    HW229387   0.582   4.574   5.557  0.0545  1.4267  0.7733
 9737SOL     OW29388   7.045   1.468   3.506  0.1355  0.0557  0.2942
 9737SOL    HW129389   6.978   1.426   3.446  1.1007 -1.3674  0.1589
 9737SOL    HW229390   7.132   1.479   3.457 -0.4337  3.6186 -0.1496
 9738SOL     OW29391   3.172   0.108   2.004 -0.1178  0.6419 -0.3126
 9738SOL    HW129392   3.159   0.056   2.089  0.5232  1.9262  0.6179
 9738SOL    HW229393   3.164   0.047   1.926 -3.7142 -0.1234  0.4521
 9739SOL     OW29394   0.280   3.030   4.406 -0.4704  0.2481  0.3366
 9739SOL    HW129395   0.237   3.060   4.491 -0.4151  1.7236 -0.1311
 9739SOL    HW229396   0.217   2.970   4.356 -0.4076 -0.8382  1.5016
 9740SOL     OW29397   1.066   5.688   8.799  0.5618 -0.1186 -0.5296
 9740SOL    HW129398   1.105   5.650   8.715 -0.1702  0.1210 -0.9868
 9740SOL    HW229399   1.029   5.614   8.855  1.8073 -0.3678 -0.0061
 9741SOL     OW29400   6.589   0.935   2.664 -0.1328  0.4799  0.4755
 9741SOL    HW129401   6.603   0.847   2.618  1.5256  1.1867 -0.4801
 9741SOL    HW229402   6.505   0.978   2.631  0.9656  0.9353 -1.9459
 9742SOL     OW29403   5.807   1.466   8.199  0.6736  0.2569  0.1422
 9742SOL    HW129404   5.716   1.506   8.203  0.2362 -0.7237  0.2380
 9742SOL    HW229405   5.802   1.377   8.154  1.5069 -0.0203  0.5831
 9743SOL     OW29406   0.846   0.999   8.777 -0.4638  0.4790  0.4634
 9743SOL    HW129407   0.877   1.093   8.790 -0.3427  0.7790 -1.6438
 9743SOL    HW229408   0.752   0.998   8.745 -0.2425 -0.0571 -0.2189
 9744SOL     OW29409   2.752   8.024   2.903  0.0997 -0.5369  0.5062
 9744SOL    HW129410   2.849   8.005   2.887  0.0870 -0.3954  0.2443
 9744SOL    HW229411   2.727   7.997   2.996  0.2666 -1.0607  0.4032
 9745SOL     OW29412   6.887   2.312   5.256  0.8255 -0.5876 -0.5006
 9745SOL    HW129413   6.823   2.387   5.242  2.2890  0.8014 -0.0393
 9745SOL    HW229414   6.841   2.225   5.236 -1.6585  0.1813  1.3703
 9746SOL     OW29415   2.360   2.994   5.644  0.2254 -0.6827  0.0283
 9746SOL    HW129416   2.383   3.078   5.693 -0.4608 -0.0603 -0.7035
 9746SOL    HW229417   2.268   3.000   5.607  0.0830 -1.8490  0.1394
 9747SOL     OW29418   6.334   5.292   2.248  0.3073  0.1657  0.2246
 9747SOL    HW129419   6.354   5.349   2.327  0.0238 -2.2064  2.1454
 9747SOL    HW229420   6.236   5.290   2.232  0.1102 -1.1966  1.3888
 9748SOL     OW29421   1.541   1.460   5.529  0.4407  0.9273 -0.6342
 9748SOL    HW129422   1.612   1.395   5.556 -0.9868  0.0466  1.2917
 9748SOL    HW229423   1.583   1.543   5.494  2.3701 -0.0915 -0.8829
 9749SOL     OW29424   7.233   5.823   5.902  0.2382 -0.3802 -0.6987
 9749SOL    HW129425   7.321   5.827   5.951 -0.2977  0.1973  0.2446
 9749SOL    HW229426   7.158   5.839   5.967 -0.6584 -2.0443 -1.2517
 9750SOL     OW29427   2.088   4.942   7.914 -0.0038 -0.0861 -0.2816
 9750SOL    HW129428   2.126   5.014   7.972 -0.1856  0.1624 -0.4672
 9750SOL    HW229429   2.162   4.892   7.870  0.1378  1.3535 -1.8169
 9751SOL     OW29430   8.390   4.167   4.879 -0.7510 -0.2828 -0.1323
 9751SOL    HW129431   8.465   4.219   4.920 -0.1817 -0.8477 -0.4416
 9751SOL    HW229432   8.369   4.206   4.789 -1.1581  0.1744  0.1558
 9752SOL     OW29433   1.352   5.148   3.368 -0.0100  1.1795  0.2930
 9752SOL    HW129434   1.360   5.226   3.306 -1.0547  2.7262  2.0057
 9752SOL    HW229435   1.268   5.156   3.421  0.2406 -0.7426  1.0539
 9753SOL     OW29436   4.694   2.355   4.326  0.3535  0.0730  0.2145
 9753SOL    HW129437   4.723   2.390   4.415  0.1618  1.1629 -0.1338
 9753SOL    HW229438   4.595   2.338   4.327 -0.0790  2.2708 -0.4471
 9754SOL     OW29439   6.566   5.428   2.610 -0.1809  0.3801 -0.4746
 9754SOL    HW129440   6.497   5.476   2.555 -0.7407  0.8559  0.6079
 9754SOL    HW229441   6.604   5.491   2.678  0.8413 -0.0690 -0.6113
 9755SOL     OW29442   7.914   8.214   6.986 -0.4531 -0.2578 -0.7951
 9755SOL    HW129443   7.893   8.151   7.060 -0.9436  0.4134 -0.3501
 9755SOL    HW229444   7.905   8.167   6.898 -0.8025 -0.8000 -0.4713
 9756SOL     OW29445   0.698   7.296   3.890  0.7824 -0.2782 -0.3534
 9756SOL    HW129446   0.713   7.310   3.988 -0.0624  0.7576 -0.3560
 9756SOL    HW229447   0.608   7.257   3.875  0.8174 -0.2169 -0.7347
 9757SOL     OW29448   0.322   7.889   2.487  0.1432  0.9740  0.3930
 9757SOL    HW129449   0.299   7.795   2.513  0.2697  0.9329  0.3566
 9757SOL    HW229450   0.395   7.888   2.418 -1.7836  0.9674 -1.7826
 9758SOL     OW29451   4.883   3.395   0.391  1.0139  0.3586 -0.2032
 9758SOL    HW129452   4.916   3.376   0.298  1.9985 -0.5573  0.3045
 9758SOL    HW229453   4.896   3.492   0.412  1.1877  0.4841 -0.8632
 9759SOL     OW29454   5.281   0.185   3.304  0.4230  0.5757 -0.2507
 9759SOL    HW129455   5.187   0.211   3.283  0.3898 -0.9919 -2.2672
 9759SOL    HW229456   5.333   0.175   3.219  1.2997 -2.5818  0.5210
 9760SOL     OW29457   3.288   2.992   7.019 -0.5426  0.0011 -0.7940
 9760SOL    HW129458   3.193   3.017   6.998 -0.4426  0.2706 -0.9316
 9760SOL    HW229459   3.294   2.893   7.030 -1.1608  0.1183  0.8716
 9761SOL     OW29460   3.723   4.593   4.976  0.0557 -0.0019  0.1761
 9761SOL    HW129461   3.727   4.666   4.908 -0.6270  0.2041  0.3427
 9761SOL    HW229462   3.782   4.615   5.054 -1.5808  1.3432  1.1216
 9762SOL     OW29463   7.528   2.458   0.365 -0.1602  0.7491 -0.1245
 9762SOL    HW129464   7.518   2.360   0.383  1.1806  0.8924  1.5644
 9762SOL    HW229465   7.567   2.470   0.273 -1.1728 -0.2335 -0.7204
 9763SOL     OW29466   4.698   1.174   7.927 -0.3843  0.3317  0.5880
 9763SOL    HW129467   4.615   1.225   7.949 -0.8098 -0.5319  1.0784
 9763SOL    HW229468   4.778   1.231   7.944 -0.8673  1.1053  0.3140
 9764SOL     OW29469   7.766   7.293   6.595 -0.3967 -0.3064  0.2475
 9764SOL    HW129470   7.732   7.299   6.689 -0.0893 -1.2844  0.4343
 9764SOL    HW229471   7.760   7.198   6.563 -1.9842  0.2546 -1.2985
 9765SOL     OW29472   1.791   5.726   2.438 -1.2003 -0.1018  0.3490
 9765SOL    HW129473   1.754   5.740   2.530  0.7987  1.1250  1.0271
 9765SOL    HW229474   1.889   5.710   2.443 -1.1235 -0.4884 -1.5563
 9766SOL     OW29475   4.143   6.267   6.398 -0.1574  0.8663 -0.7300
 9766SOL    HW129476   4.239   6.291   6.405 -0.4303  1.7034  0.4458
 9766SOL    HW229477   4.132   6.168   6.413  0.4073  0.9395  0.1935
 9767SOL     OW29478   0.896   1.247   8.832  0.6896  0.4762 -0.0377
 9767SOL    HW129479   0.809   1.295   8.841 -0.5358 -1.4042 -1.0487
 9767SOL    HW229480   0.943   1.278   8.749  0.7649  1.1962  0.2766
 9768SOL     OW29481   6.012   3.096   7.540 -0.0687 -0.0146  0.0413
 9768SOL    HW129482   6.019   2.996   7.535  0.2485  0.0394 -0.6405
 9768SOL    HW229483   6.077   3.130   7.608  0.6832 -0.1791 -0.5773
 9769SOL     OW29484   8.829   8.726   6.022 -0.0720 -0.1444  0.0014
 9769SOL    HW129485   8.759   8.669   5.979 -0.9228  0.1499  0.9517
 9769SOL    HW229486   8.789   8.814   6.048  0.5795 -0.0714  0.8056
 9770SOL     OW29487   4.283   6.759   3.703 -0.7594 -0.1336  0.5639
 9770SOL    HW129488   4.340   6.753   3.621  0.3263 -0.9061  1.3611
 9770SOL    HW229489   4.209   6.824   3.686  0.2919  0.8392 -0.5221
 9771SOL     OW29490   0.102   6.526   7.565 -0.1459 -0.0007 -0.5034
 9771SOL    HW129491   0.119   6.620   7.597 -0.9054 -0.0349  0.0442
 9771SOL    HW229492   0.182   6.492   7.516  2.9123 -1.3265  4.6175
 9772SOL     OW29493   3.758   2.098   4.216  0.1299  0.1440 -0.1560
 9772SOL    HW129494   3.702   2.044   4.153  1.6435 -1.4313 -0.2286
 9772SOL    HW229495   3.842   2.047   4.238  0.2341  1.1835  2.1505
 9773SOL     OW29496   0.641   3.091   7.567  0.0654 -0.4902 -0.0467
 9773SOL    HW129497   0.573   3.052   7.629 -0.9704 -1.7939 -1.8708
 9773SOL    HW229498   0.597   3.110   7.478  1.6355  0.6052 -0.6424
 9774SOL     OW29499   8.490   7.761   8.816 -0.0809 -0.2675 -0.0465
 9774SOL    HW129500   8.451   7.726   8.731 -1.9982 -0.2117  0.7645
 9774SOL    HW229501   8.417   7.800   8.872  1.4611  1.8819  0.6033
 9775SOL     OW29502   1.751   2.185   0.733  0.0496 -0.1686  0.1674
 9775SOL    HW129503   1.725   2.206   0.639  0.7656  0.6584  0.1500
 9775SOL    HW229504   1.835   2.132   0.734  0.5061  0.5493  0.3678
 9776SOL     OW29505   5.131   7.166   4.710  0.6130 -1.2753 -0.5701
 9776SOL    HW129506   5.079   7.124   4.635 -0.7148 -0.6574 -0.0189
 9776SOL    HW229507   5.069   7.216   4.770  2.1649  1.9963 -1.4903
 9777SOL     OW29508   5.187   7.143   8.161 -0.3745  0.0636  0.1837
 9777SOL    HW129509   5.127   7.145   8.241 -0.0684  0.6770  0.3993
 9777SOL    HW229510   5.133   7.160   8.079 -0.4805  0.7178  0.3872
 9778SOL     OW29511   7.578   6.444   3.093 -0.1451  0.6189 -0.0179
 9778SOL    HW129512   7.543   6.536   3.076  0.2960  0.7877 -0.0245
 9778SOL    HW229513   7.508   6.377   3.068 -0.1713  0.9201 -0.7952
 9779SOL     OW29514   4.714   3.822   2.504 -0.1688 -0.1476  0.2922
 9779SOL    HW129515   4.673   3.822   2.596 -0.5577  1.9072  0.1528
 9779SOL    HW229516   4.642   3.825   2.435  0.1595  0.9828 -0.0148
 9780SOL     OW29517   1.579   3.186   0.027  0.3060 -0.3957  0.4408
 9780SOL    HW129518   1.531   3.269   0.055 -0.8186 -0.6885 -0.5289
 9780SOL    HW229519   1.512   3.117  -0.002  1.2947 -1.0644 -0.3107
 9781SOL     OW29520   2.284   2.313   0.843 -0.2297  0.3773  0.4255
 9781SOL    HW129521   2.339   2.392   0.814  0.7783 -0.7766 -1.0154
 9781SOL    HW229522   2.190   2.341   0.858  0.4092  2.1245  1.4113
 9782SOL     OW29523   5.632   1.412   1.533  0.1066  0.6752 -0.2934
 9782SOL    HW129524   5.715   1.456   1.499  1.6154 -0.9429  1.1486
 9782SOL    HW229525   5.634   1.315   1.512 -0.4777  0.2470  1.4465
 9783SOL     OW29526   3.592   6.844   6.484 -0.3724  0.1259 -0.0921
 9783SOL    HW129527   3.534   6.919   6.515  0.9476  1.8224 -1.4810
 9783SOL    HW229528   3.548   6.797   6.407 -0.6773  0.2676 -0.0051
 9784SOL     OW29529   2.433   2.487   5.287  0.0980  0.0813  0.2047
 9784SOL    HW129530   2.400   2.566   5.235  0.2544  0.4140  0.6054
 9784SOL    HW229531   2.465   2.518   5.376 -1.1331 -0.6131  0.9089
 9785SOL     OW29532   2.774   4.134   3.900  0.0339 -0.3043  0.3840
 9785SOL    HW129533   2.690   4.166   3.856  0.2685  0.0732  0.2119
 9785SOL    HW229534   2.840   4.105   3.830 -0.2084 -1.2701  0.5324
 9786SOL     OW29535   1.684   5.238   5.245 -0.3317 -0.5639 -0.1300
 9786SOL    HW129536   1.687   5.216   5.342  1.8923  0.4364  0.0992
 9786SOL    HW229537   1.717   5.160   5.192  2.7356  0.2834  0.3204
 9787SOL     OW29538   4.564   7.226   6.174  0.0831 -0.4173 -0.0534
 9787SOL    HW129539   4.498   7.264   6.109  2.4869  1.1133 -1.7670
 9787SOL    HW229540   4.566   7.283   6.256 -0.3454 -0.1376 -0.2350
 9788SOL     OW29541   6.357   4.416   7.596 -0.7733  0.4610  0.0802
 9788SOL    HW129542   6.310   4.340   7.551 -0.1776  0.2189 -0.1433
 9788SOL    HW229543   6.425   4.454   7.534  2.5019 -2.0290  1.7714
 9789SOL     OW29544   8.368   0.753   8.797  0.5075  0.5667  0.0543
 9789SOL    HW129545   8.346   0.801   8.882 -1.2832  1.7754 -1.0303
 9789SOL    HW229546   8.313   0.670   8.791  0.5453  0.5458 -0.0027
 9790SOL     OW29547   8.205   7.364   5.922 -0.0892  0.0199  0.3902
 9790SOL    HW129548   8.144   7.348   5.999 -1.2026 -1.4924 -0.7321
 9790SOL    HW229549   8.289   7.310   5.933 -0.3936 -0.4598  0.3949
 9791SOL     OW29550   6.282   3.292   1.348  0.1344  0.9717  0.4718
 9791SOL    HW129551   6.270   3.224   1.276  1.9629 -1.8313  2.5828
 9791SOL    HW229552   6.199   3.296   1.404  0.2961 -0.2241  0.8255
 9792SOL     OW29553   7.677   2.223   4.970  0.1120  0.1779 -0.2567
 9792SOL    HW129554   7.694   2.213   5.068  0.2052 -3.5863 -0.5221
 9792SOL    HW229555   7.764   2.227   4.921  0.1922 -2.0293 -0.3938
 9793SOL     OW29556   3.483   4.501   6.188 -0.4136  0.7328  0.7358
 9793SOL    HW129557   3.432   4.489   6.273 -0.9073 -2.2695  0.1283
 9793SOL    HW229558   3.421   4.487   6.110  0.6908  0.0731 -0.0528
 9794SOL     OW29559   2.313   5.935   2.182  0.0548 -0.4278 -0.3855
 9794SOL    HW129560   2.346   5.901   2.270  1.9245 -0.0750 -0.8911
 9794SOL    HW229561   2.279   5.859   2.127 -0.7037 -0.7114  0.4547
 9795SOL     OW29562   1.217   2.268   5.758 -0.3545  0.0821  0.0964
 9795SOL    HW129563   1.300   2.232   5.716  0.5495  0.8423  1.1503
 9795SOL    HW229564   1.156   2.193   5.783 -0.1928 -0.4565 -1.0823
 9796SOL     OW29565   3.728   2.521   5.911  0.1792 -0.3257  0.3218
 9796SOL    HW129566   3.665   2.567   5.849 -2.2508 -4.1464 -0.3854
 9796SOL    HW229567   3.709   2.550   6.005 -1.5349 -0.1736 -0.0446
 9797SOL     OW29568   0.689   8.731   8.214 -0.2104 -0.1063  0.3513
 9797SOL    HW129569   0.603   8.776   8.189 -0.0102  0.6044  0.9102
 9797SOL    HW229570   0.677   8.632   8.209 -1.1491 -0.0196  0.6966
 9798SOL     OW29571   7.023   4.501   7.574  0.3551  0.2266  0.7470
 9798SOL    HW129572   7.015   4.574   7.641 -0.3833  0.5616  0.3010
 9798SOL    HW229573   7.004   4.536   7.483  0.0847 -0.5015  0.5131
 9799SOL     OW29574   4.173   8.334   0.065 -0.0976 -0.0716  0.0423
 9799SOL    HW129575   4.161   8.285  -0.021 -0.5046 -0.9037  0.5564
 9799SOL    HW229576   4.224   8.418   0.049  0.8761 -0.8037 -0.8210
 9800SOL     OW29577   5.569   6.589   3.396  0.1502  0.5163  0.0733
 9800SOL    HW129578   5.592   6.546   3.308  1.5422 -2.6661  1.8319
 9800SOL    HW229579   5.541   6.519   3.461 -2.4378  2.9622  1.7988
 9801SOL     OW29580   0.882   3.794   0.446 -0.4864  0.2638  0.2078
 9801SOL    HW129581   0.925   3.709   0.479  0.2754 -0.4268 -2.3637
 9801SOL    HW229582   0.939   3.872   0.473 -0.6904 -0.0821  1.7618
 9802SOL     OW29583   8.003   0.508   8.563  0.3656  0.3330  0.4768
 9802SOL    HW129584   7.956   0.463   8.487  1.1373 -0.5187  0.4897
 9802SOL    HW229585   7.981   0.462   8.648  0.9398  0.1376  0.5272
 9803SOL     OW29586   1.140   3.723   0.685 -0.0371  0.8598 -0.4154
 9803SOL    HW129587   1.185   3.680   0.764 -0.1160  0.2508 -0.7005
 9803SOL    HW229588   1.069   3.785   0.717 -1.1074 -0.5186 -0.0288
 9804SOL     OW29589   8.205   0.086   6.557  0.1381  0.1621  0.3078
 9804SOL    HW129590   8.204   0.132   6.646  0.7729  2.1261 -0.6225
 9804SOL    HW229591   8.114   0.048   6.538 -0.7690  1.9488  0.7620
 9805SOL     OW29592   3.383   2.214   5.045 -0.3235  0.0541  0.0094
 9805SOL    HW129593   3.385   2.115   5.056  0.2917  0.1147  0.5148
 9805SOL    HW229594   3.409   2.258   5.132 -0.4006  0.6551 -0.2628
 9806SOL     OW29595   1.334   4.068   2.722  0.4614  0.4303 -0.0898
 9806SOL    HW129596   1.376   4.060   2.812 -0.4355  2.1628  0.5130
 9806SOL    HW229597   1.396   4.119   2.661 -0.1516  1.8413  0.4251
 9807SOL     OW29598   8.348   2.643   0.852  0.3345 -0.2588  0.3758
 9807SOL    HW129599   8.350   2.738   0.820 -1.7788 -0.6116 -1.0053
 9807SOL    HW229600   8.442   2.610   0.863  1.1333  1.9952  1.0362
 9808SOL     OW29601   3.121   5.133   4.775 -0.0927  0.4000 -0.0316
 9808SOL    HW129602   3.063   5.130   4.857  1.8992  0.0693  1.4479
 9808SOL    HW229603   3.200   5.190   4.793  1.0636 -0.7559 -1.2545
 9809SOL     OW29604   8.780   1.286   6.704  0.3753  0.6323 -0.0777
 9809SOL    HW129605   8.685   1.287   6.736 -0.6700 -0.5528 -2.8598
 9809SOL    HW229606   8.835   1.346   6.763 -2.3665  2.5942  0.7205
 9810SOL     OW29607   6.769   4.849   1.928 -0.2656  0.1534  0.0156
 9810SOL    HW129608   6.867   4.855   1.947 -0.4370 -1.0507  1.4268
 9810SOL    HW229609   6.755   4.800   1.841  0.3735 -2.1663  1.1289
 9811SOL     OW29610   6.200   1.704   0.253  0.1966 -0.3257  0.7674
 9811SOL    HW129611   6.144   1.786   0.260 -0.4148 -0.7008  0.3963
 9811SOL    HW229612   6.241   1.683   0.341 -2.3579 -1.5177  1.7622
 9812SOL     OW29613   4.967   5.209   8.743  0.1511 -0.9459 -0.4716
 9812SOL    HW129614   4.962   5.111   8.759 -1.6840 -1.0008 -1.1229
 9812SOL    HW229615   5.015   5.226   8.657  1.5150 -1.1822  0.2229
 9813SOL     OW29616   6.118   7.431   3.871 -0.1477  0.5388  0.2024
 9813SOL    HW129617   6.037   7.445   3.815  1.0273 -1.1638 -2.0973
 9813SOL    HW229618   6.107   7.348   3.926  0.5410 -0.6287 -1.3194
 9814SOL     OW29619   6.518   7.163   4.388  0.0152 -0.2960 -0.3224
 9814SOL    HW129620   6.618   7.164   4.387  0.1081 -1.5738  1.4899
 9814SOL    HW229621   6.485   7.073   4.360 -0.4973 -0.6373  1.2728
 9815SOL     OW29622   5.779   0.010   5.562  0.4668 -0.0632  0.3489
 9815SOL    HW129623   5.698   0.066   5.581  1.2189  0.4245  2.3111
 9815SOL    HW229624   5.773  -0.076   5.611  0.5218 -0.6295 -0.6107
 9816SOL     OW29625   3.555   7.819   5.451  0.4637  0.0881 -0.0684
 9816SOL    HW129626   3.587   7.854   5.363 -0.9129  0.5835 -0.3972
 9816SOL    HW229627   3.512   7.729   5.437 -0.1666  0.3739  0.0181
 9817SOL     OW29628   4.430   4.258   0.894 -0.0837  0.4470 -0.1021
 9817SOL    HW129629   4.477   4.326   0.950 -1.8284  0.0779  1.9468
 9817SOL    HW229630   4.475   4.169   0.905 -0.5486  0.3268  0.9714
 9818SOL     OW29631   1.870   8.432   7.487  0.3384 -0.0322  0.0587
 9818SOL    HW129632   1.831   8.379   7.412  0.2333 -0.1109  0.1684
 9818SOL    HW229633   1.899   8.370   7.560 -0.6755  0.1147  0.6086
 9819SOL     OW29634   0.929   2.785   5.743 -0.6162  0.6060  0.1917
 9819SOL    HW129635   1.002   2.716   5.746  0.4692  1.7420  0.8577
 9819SOL    HW229636   0.896   2.794   5.649 -0.3780 -0.4072 -0.0058
 9820SOL     OW29637   7.067   5.065   5.346 -0.2784 -0.2732  0.1241
 9820SOL    HW129638   7.143   5.127   5.361 -0.2703  0.1627 -1.5015
 9820SOL    HW229639   7.101   4.972   5.335 -0.0477 -0.1828  0.0828
 9821SOL     OW29640   5.539   7.877   4.860  0.2753 -0.0287 -0.3005
 9821SOL    HW129641   5.495   7.967   4.859 -0.0540 -0.0883  2.2008
 9821SOL    HW229642   5.600   7.869   4.781  1.1894  2.8402 -0.0265
 9822SOL     OW29643   7.678   4.796   3.813 -0.0561  0.0700 -0.2411
 9822SOL    HW129644   7.651   4.710   3.858 -0.1396 -0.2316 -0.8582
 9822SOL    HW229645   7.695   4.779   3.716 -1.2750  0.9959 -0.6332
 9823SOL     OW29646   8.266   6.958   5.546 -0.6887 -0.1082 -0.3952
 9823SOL    HW129647   8.300   7.051   5.528 -1.1744 -0.1600 -1.7367
 9823SOL    HW229648   8.166   6.960   5.555 -0.7366 -0.5387 -0.7806
 9824SOL     OW29649   5.207   6.172   8.197  0.1962  0.0611  0.4830
 9824SOL    HW129650   5.112   6.173   8.165  0.2831  0.2243  0.2286
 9824SOL    HW229651   5.239   6.266   8.208  0.6513  0.0103 -0.3861
 9825SOL     OW29652   0.785   4.254   4.677 -0.2931  0.0054  0.0426
 9825SOL    HW129653   0.860   4.317   4.698 -1.2903  1.3227 -0.1671
 9825SOL    HW229654   0.807   4.203   4.594  1.3973 -1.4209  1.2995
 9826SOL     OW29655   2.212   5.914   3.013 -0.5324 -0.0872 -0.0599
 9826SOL    HW129656   2.280   5.918   3.086 -0.5457 -1.2007  0.0334
 9826SOL    HW229657   2.131   5.967   3.039  0.0895  0.8187  0.0452
 9827SOL     OW29658   5.510   1.775   7.388 -0.4064 -0.0518  0.6754
 9827SOL    HW129659   5.490   1.823   7.473  1.3224 -0.1138  1.1542
 9827SOL    HW229660   5.607   1.753   7.384 -0.9394 -2.5748 -0.0159
 9828SOL     OW29661   3.828   3.373   6.819 -0.2844 -0.0134 -0.0920
 9828SOL    HW129662   3.870   3.287   6.791 -0.6968 -0.5597  0.9242
 9828SOL    HW229663   3.899   3.444   6.824  0.3130 -0.6262  0.3994
 9829SOL     OW29664   3.554   1.781   2.139 -0.0714  0.3840 -0.4431
 9829SOL    HW129665   3.638   1.729   2.151 -0.4439  0.0612  0.9516
 9829SOL    HW229666   3.564   1.871   2.181  0.2699  1.1490 -2.0869
 9830SOL     OW29667   5.678   5.537   0.644  0.2170 -0.3291 -0.4464
 9830SOL    HW129668   5.652   5.555   0.550  1.7854 -0.3543 -0.9141
 9830SOL    HW229669   5.745   5.463   0.647 -0.1141 -0.6151  0.7354
 9831SOL     OW29670   4.622   0.503   0.047 -0.0474  0.0149  0.3696
 9831SOL    HW129671   4.647   0.590   0.006 -0.0914 -0.2243 -0.1726
 9831SOL    HW229672   4.540   0.515   0.102  0.0621  0.3593  0.4608
 9832SOL     OW29673   8.740   3.012   6.627  0.2904  0.5259  0.0244
 9832SOL    HW129674   8.780   3.062   6.551 -1.6796  1.5946 -0.3730
 9832SOL    HW229675   8.802   3.017   6.706  0.4367  3.1788 -0.1608
 9833SOL     OW29676   7.939   4.976   4.222 -0.7139 -0.0431 -1.1691
 9833SOL    HW129677   7.948   4.884   4.185  0.9710 -1.0714  1.4877
 9833SOL    HW229678   7.852   4.984   4.271 -0.9487 -0.1349 -1.5654
 9834SOL     OW29679   8.207   8.735   0.008  0.0988 -0.0651  0.6120
 9834SOL    HW129680   8.283   8.711   0.068 -0.3656  1.2305  1.7827
 9834SOL    HW229681   8.235   8.806  -0.057  0.1611 -0.2942  0.3897
 9835SOL     OW29682   3.761   7.889   2.314 -0.3566  0.6302  0.5284
 9835SOL    HW129683   3.784   7.895   2.217 -0.5039  1.1845  0.5200
 9835SOL    HW229684   3.662   7.897   2.325 -0.3806  0.1364  0.6953
 9836SOL     OW29685   8.692   7.036   4.587 -0.0366  0.0982  0.2319
 9836SOL    HW129686   8.654   6.947   4.559 -0.8542  0.0503  1.3911
 9836SOL    HW229687   8.715   7.089   4.506 -1.4218 -0.3891 -0.5296
 9837SOL     OW29688   5.988   0.713   2.225  0.4920 -0.6925  0.0084
 9837SOL    HW129689   5.966   0.789   2.163 -0.7726 -0.1402  1.0825
 9837SOL    HW229690   6.016   0.750   2.314 -0.6645 -1.4400  0.7243
 9838SOL     OW29691   7.986   5.952   2.767  0.3156  0.0168 -0.2711
 9838SOL    HW129692   7.973   5.995   2.856 -1.1953  0.4236 -0.6475
 9838SOL    HW229693   7.938   5.864   2.766  2.2823 -1.1274  0.0571
 9839SOL     OW29694   0.398   8.258   5.436  0.3000 -0.0529  0.1993
 9839SOL    HW129695   0.321   8.228   5.492 -0.5794  1.9869  0.1671
 9839SOL    HW229696   0.384   8.229   5.341  0.3271 -0.9435  0.4558
 9840SOL     OW29697   3.532   3.246   1.081  0.0913 -0.1225 -0.2447
 9840SOL    HW129698   3.527   3.265   0.983 -0.0149  0.4716 -0.1256
 9840SOL    HW229699   3.448   3.200   1.110 -0.2242  0.4187 -0.2835
 9841SOL     OW29700   8.353   0.794   5.564  0.2092 -0.6995 -0.0838
 9841SOL    HW129701   8.404   0.828   5.643  0.1807  0.2494 -0.4522
 9841SOL    HW229702   8.403   0.818   5.480 -1.2169  0.9910 -0.5061
 9842SOL     OW29703   0.792   1.847   2.137  0.3188  0.4783 -0.4460
 9842SOL    HW129704   0.739   1.852   2.053 -0.2260 -0.4771 -0.1672
 9842SOL    HW229705   0.743   1.893   2.210  1.6464  3.0035 -1.0389
 9843SOL     OW29706   0.580   0.179   0.937  0.6119 -0.2776 -0.2297
 9843SOL    HW129707   0.494   0.193   0.985 -0.3246  0.8509 -2.1121
 9843SOL    HW229708   0.629   0.266   0.931  2.3974 -1.0785  1.6532
 9844SOL     OW29709   4.266   8.328   1.242  0.0156 -0.1428  0.0225
 9844SOL    HW129710   4.350   8.334   1.295  0.2421 -0.4422 -0.2967
 9844SOL    HW229711   4.229   8.420   1.229 -1.0133 -0.2128  2.1984
 9845SOL     OW29712   0.206   1.251   2.991  0.3516 -0.1583 -0.0288
 9845SOL    HW129713   0.248   1.323   3.047  0.2968  0.3761 -0.6575
 9845SOL    HW229714   0.111   1.240   3.017  0.0863  0.6921 -0.5707
 9846SOL     OW29715   2.788   3.795   4.467  0.2970 -0.2125  0.2861
 9846SOL    HW129716   2.825   3.883   4.438  0.2608  0.7531  2.9207
 9846SOL    HW229717   2.690   3.804   4.485 -0.4129 -1.6321 -2.3298
 9847SOL     OW29718   3.356   3.263   0.557 -0.0298  0.0487 -0.2631
 9847SOL    HW129719   3.432   3.313   0.516  0.4192 -1.0074 -0.7558
 9847SOL    HW229720   3.354   3.169   0.521 -2.7841  0.5959 -1.9080
 9848SOL     OW29721   4.431   0.860   8.798  0.0748 -0.9848  0.0651
 9848SOL    HW129722   4.504   0.873   8.730 -0.5095 -1.0785 -0.5852
 9848SOL    HW229723   4.473   0.849   8.888  0.8156  0.1207 -0.1163
 9849SOL     OW29724   5.576   4.827   8.322 -0.0107  0.1951 -0.0613
 9849SOL    HW129725   5.573   4.926   8.336  1.2783  0.1673  0.5710
 9849SOL    HW229726   5.499   4.785   8.369  1.6491  0.5559  3.3009
 9850SOL     OW29727   3.561   7.670   6.701  0.7495 -0.7281 -0.3454
 9850SOL    HW129728   3.508   7.585   6.710  2.2446 -1.6217  0.6129
 9850SOL    HW229729   3.550   7.724   6.785  1.6768 -1.1470  0.0647
 9851SOL     OW29730   6.486   7.942   4.188 -0.1005  0.3825  0.4954
 9851SOL    HW129731   6.449   7.849   4.187  0.1437  0.2665  1.3470
 9851SOL    HW229732   6.583   7.940   4.163  0.4973  0.0995  2.5822
 9852SOL     OW29733   8.288   6.603   0.230  0.3610 -0.0657 -0.0839
 9852SOL    HW129734   8.265   6.696   0.201  0.8985 -0.3285 -1.4492
 9852SOL    HW229735   8.386   6.588   0.218  0.3428 -0.6880  0.5057
 9853SOL     OW29736   3.785   2.715   1.346  0.0859 -0.0939  0.2988
 9853SOL    HW129737   3.699   2.689   1.303  0.0347 -0.8228  0.8288
 9853SOL    HW229738   3.791   2.675   1.438  0.5670  0.7306  0.6468
 9854SOL     OW29739   2.643   4.680   6.841 -0.0757  0.3908 -0.2546
 9854SOL    HW129740   2.556   4.664   6.795  1.1456 -2.5714 -1.7487
 9854SOL    HW229741   2.653   4.615   6.917  1.9573 -1.3450 -1.8909
 9855SOL     OW29742   1.487   2.320   5.233 -0.3928 -0.8208 -0.2392
 9855SOL    HW129743   1.489   2.413   5.270 -0.2539 -0.7863 -0.3339
 9855SOL    HW229744   1.551   2.263   5.284 -1.3332 -1.1587  0.5999
 9856SOL     OW29745   5.403   3.571   2.362  0.4700  0.4710 -0.0617
 9856SOL    HW129746   5.345   3.580   2.281  1.5241  1.9397 -0.6939
 9856SOL    HW229747   5.496   3.601   2.340  1.1605 -0.5702  1.2930
 9857SOL     OW29748   8.685   0.999   6.065 -0.2238  0.4324  0.3097
 9857SOL    HW129749   8.732   0.973   5.981 -0.4709 -0.7156  0.5134
 9857SOL    HW229750   8.744   0.979   6.144 -0.9396 -0.7844  0.5515
 9858SOL     OW29751   8.045   6.005   3.269 -0.5830  0.3717  0.1360
 9858SOL    HW129752   8.104   5.928   3.291  0.5241  1.0504 -0.4021
 9858SOL    HW229753   8.030   6.060   3.351  0.6540  0.9424 -0.0068
 9859SOL     OW29754   2.753   6.639   3.310  0.3037 -0.2709 -0.3157
 9859SOL    HW129755   2.684   6.711   3.308 -0.7396 -1.2564 -2.0656
 9859SOL    HW229756   2.712   6.553   3.281  2.4376 -0.7016 -2.3544
 9860SOL     OW29757   2.213   3.216   7.941  0.3265  0.1594  0.0415
 9860SOL    HW129758   2.222   3.197   8.039  1.0601  2.2414  0.4240
 9860SOL    HW229759   2.297   3.190   7.894  0.8618  1.2139  0.3688
 9861SOL     OW29760   4.473   3.572   2.244 -0.4168 -0.0382  0.2100
 9861SOL    HW129761   4.456   3.531   2.155 -0.7997 -0.0560  0.2862
 9861SOL    HW229762   4.449   3.507   2.316  0.1701 -0.1283  0.3257
 9862SOL     OW29763   1.718   4.680   8.473 -0.0661 -0.2829 -0.0447
 9862SOL    HW129764   1.793   4.741   8.499  0.2196 -0.3205 -0.7484
 9862SOL    HW229765   1.639   4.734   8.444  0.5002 -0.2036 -1.5670
 9863SOL     OW29766   3.768   8.365   1.561 -0.0580  0.2058  1.0346
 9863SOL    HW129767   3.684   8.415   1.582 -0.2560 -1.4193  4.9166
 9863SOL    HW229768   3.749   8.267   1.561  1.6293 -0.1554  0.8061
 9864SOL     OW29769   2.957   1.180   8.051 -0.6029  0.3678 -0.2330
 9864SOL    HW129770   3.046   1.154   8.089 -0.0340  0.7585 -1.2560
 9864SOL    HW229771   2.932   1.270   8.085  0.5941  1.3633 -1.8400
 9865SOL     OW29772   4.941   6.672   2.427  0.1098  0.1007 -0.1359
 9865SOL    HW129773   4.842   6.667   2.414  0.1181 -1.3218  0.1082
 9865SOL    HW229774   4.986   6.641   2.343  0.3640  1.2485 -0.4303
 9866SOL     OW29775   8.796   7.476   4.969 -0.4338  0.1363  0.4407
 9866SOL    HW129776   8.705   7.475   4.927 -1.0943 -0.9586  1.8016
 9866SOL    HW229777   8.790   7.520   5.058  0.6179  1.0142  0.0949
 9867SOL     OW29778   8.140   0.464   2.288  0.3762  0.3167 -0.0397
 9867SOL    HW129779   8.079   0.388   2.264  0.9024 -0.0440 -0.2806
 9867SOL    HW229780   8.087   0.545   2.309 -0.2439 -0.3423  1.0339
 9868SOL     OW29781   8.175   4.971   8.704  0.3142  0.0875 -0.0014
 9868SOL    HW129782   8.213   4.904   8.768  0.3964 -1.2687 -1.4034
 9868SOL    HW229783   8.088   5.005   8.740  0.7730  0.0224  1.2278
 9869SOL     OW29784   0.403   2.296   3.996  0.1684 -0.3091 -0.4936
 9869SOL    HW129785   0.333   2.234   4.031 -0.3107  0.7523  0.5039
 9869SOL    HW229786   0.364   2.387   3.982  1.1096  0.0606 -0.8540
 9870SOL     OW29787   0.328   1.111   7.433  0.8745  0.2900 -0.9157
 9870SOL    HW129788   0.243   1.060   7.418  0.8484 -1.1035  2.9101
 9870SOL    HW229789   0.402   1.067   7.383  0.4785 -2.5928  0.7882
 9871SOL     OW29790   7.850   2.044   6.089 -0.2101  0.0079  0.4235
 9871SOL    HW129791   7.884   1.965   6.138 -1.2300 -0.2153  0.8051
 9871SOL    HW229792   7.751   2.035   6.076 -0.3251  1.1489  0.3635
 9872SOL     OW29793   2.665   6.454   6.739 -0.1611 -0.2310 -0.1054
 9872SOL    HW129794   2.657   6.554   6.747  0.8324 -0.1290 -0.2602
 9872SOL    HW229795   2.751   6.431   6.694 -1.0492 -1.1146 -1.4276
 9873SOL     OW29796   6.053   8.647   1.679 -0.2868 -0.3832  0.0601
 9873SOL    HW129797   6.075   8.742   1.702  1.0210 -1.0128  1.5892
 9873SOL    HW229798   6.031   8.597   1.762  2.2014 -2.1782 -0.2441
 9874SOL     OW29799   6.693   4.738   4.585 -0.8194 -0.2446  0.3875
 9874SOL    HW129800   6.785   4.752   4.623 -1.2033  0.7007  1.0261
 9874SOL    HW229801   6.666   4.642   4.597 -0.4137 -0.2498  1.3487
 9875SOL     OW29802   2.238   8.205   7.716 -0.0657  0.3055 -0.0174
 9875SOL    HW129803   2.288   8.226   7.632  1.3492 -0.8788  0.4918
 9875SOL    HW229804   2.154   8.156   7.693  0.4357 -0.2341 -0.7477
 9876SOL     OW29805   6.589   2.056   8.196  0.2076 -0.3690  0.6516
 9876SOL    HW129806   6.501   2.086   8.159  1.0294  1.7948  0.3274
 9876SOL    HW229807   6.595   2.082   8.292  1.1596  1.1049  0.2188
 9877SOL     OW29808   1.253   0.485   5.493  0.6311  0.3178 -0.3525
 9877SOL    HW129809   1.244   0.538   5.408 -2.2630  1.7821  0.7415
 9877SOL    HW229810   1.292   0.543   5.564  0.3206  0.0148  0.0652
 9878SOL     OW29811   4.059   6.893   3.644  0.1422 -0.5920 -0.5770
 9878SOL    HW129812   3.988   6.825   3.628 -1.8434  0.7196  1.8838
 9878SOL    HW229813   4.062   6.957   3.567 -1.9264 -0.2583 -0.4519
 9879SOL     OW29814   8.208   5.411   0.186 -0.3209 -0.6945 -0.3783
 9879SOL    HW129815   8.200   5.361   0.273  1.0239  0.4472  0.4401
 9879SOL    HW229816   8.203   5.346   0.110  1.6836 -2.1517  0.6607
 9880SOL     OW29817   3.563   6.391   2.285  0.1628 -0.2135 -0.1205
 9880SOL    HW129818   3.467   6.385   2.314  0.5890  0.6305  1.6286
 9880SOL    HW229819   3.591   6.487   2.284  1.4100 -0.5366  0.9633
 9881SOL     OW29820   4.416   2.674   7.220 -0.3429 -0.0359  0.2830
 9881SOL    HW129821   4.393   2.639   7.311  1.8345 -0.0624  0.8864
 9881SOL    HW229822   4.477   2.610   7.174 -1.8066 -0.2641 -1.4604
 9882SOL     OW29823   8.630   5.030   2.255 -0.0053  0.3240 -0.4984
 9882SOL    HW129824   8.636   4.949   2.197  0.9941  0.5843 -0.7768
 9882SOL    HW229825   8.700   5.026   2.326 -0.6464  0.4338  0.1503
 9883SOL     OW29826   6.026   8.200   1.880  0.0688 -0.5155  0.1333
 9883SOL    HW129827   6.097   8.254   1.835 -1.1128 -0.3830 -1.7053
 9883SOL    HW229828   6.037   8.104   1.855 -2.1534 -0.1458 -2.9212
 9884SOL     OW29829   2.914   2.857   5.390 -0.4249 -0.2999  0.3501
 9884SOL    HW129830   2.912   2.916   5.310 -4.1924  0.1430  0.5684
 9884SOL    HW229831   2.950   2.907   5.468  2.8134 -0.5871 -0.7963
 9885SOL     OW29832   6.876   1.179   1.686 -0.5176 -0.0829 -0.5303
 9885SOL    HW129833   6.866   1.080   1.701 -1.6437 -0.1568 -1.6162
 9885SOL    HW229834   6.853   1.227   1.771  0.3130 -0.7423  0.0942
 9886SOL     OW29835   0.597   6.625   5.942  0.3143  0.1559 -0.4824
 9886SOL    HW129836   0.504   6.658   5.930  0.2073  0.7621  1.6302
 9886SOL    HW229837   0.660   6.704   5.948  0.9428 -0.2371 -1.5740
 9887SOL     OW29838   0.699   0.692   1.357 -0.4467  0.0038 -0.1696
 9887SOL    HW129839   0.662   0.694   1.449 -1.3654 -0.6431 -0.5147
 9887SOL    HW229840   0.686   0.601   1.317  0.3141  0.1525 -0.7930
 9888SOL     OW29841   7.236   8.063   7.645  0.9846  0.0878 -0.6833
 9888SOL    HW129842   7.216   8.125   7.720  2.9210 -0.5276  0.4207
 9888SOL    HW229843   7.306   8.103   7.586  1.3880 -0.5370 -0.6388
 9889SOL     OW29844   0.941   0.575   6.545  0.2038 -0.3674  0.0431
 9889SOL    HW129845   1.029   0.534   6.567  0.5416  0.7894  0.9556
 9889SOL    HW229846   0.867   0.517   6.580  0.6039 -1.1528 -0.3922
 9890SOL     OW29847   3.074   5.353   4.179 -0.6643  0.4298  0.1356
 9890SOL    HW129848   3.028   5.441   4.193 -3.1664 -0.5321 -1.2346
 9890SOL    HW229849   3.006   5.280   4.184  1.1782 -1.3533  0.2281
 9891SOL     OW29850   5.087   0.179   1.625  0.8566  0.3399  0.3117
 9891SOL    HW129851   5.091   0.196   1.724 -0.4625 -0.8401  0.6030
 9891SOL    HW229852   5.089   0.267   1.577  0.9128  0.9710  1.4175
 9892SOL     OW29853   6.549   3.309   5.368  0.3637  0.3875  0.3882
 9892SOL    HW129854   6.468   3.322   5.311  0.0116  0.8112  0.9831
 9892SOL    HW229855   6.619   3.261   5.315 -0.6811 -1.0217  0.2046
 9893SOL     OW29856   4.459   7.087   8.636  0.1603 -0.2359  0.7097
 9893SOL    HW129857   4.516   7.050   8.563 -1.1437 -0.7739 -0.0729
 9893SOL    HW229858   4.442   7.184   8.620  0.1529 -0.2763  0.4804
 9894SOL     OW29859   3.160   7.013   1.994  0.1306 -0.2376  0.3822
 9894SOL    HW129860   3.132   7.057   2.080 -0.1499  0.0410  0.1519
 9894SOL    HW229861   3.120   7.063   1.917  1.9936  0.7286 -0.0137
 9895SOL     OW29862   5.535   6.245   0.593  0.4017  0.0674  0.2091
 9895SOL    HW129863   5.495   6.282   0.509 -1.2754 -0.7761  0.6041
 9895SOL    HW229864   5.626   6.285   0.607 -0.5116  2.5016 -0.4083
 9896SOL     OW29865   4.062   2.436   1.632 -0.1230 -0.0250  0.1295
 9896SOL    HW129866   4.121   2.515   1.648 -0.2119  0.0702 -0.0117
 9896SOL    HW229867   4.119   2.353   1.625 -0.0651 -0.0367  0.6962
 9897SOL     OW29868   4.696   6.486   3.636 -0.4319  0.2672 -0.2477
 9897SOL    HW129869   4.700   6.424   3.715  1.9741  1.3187  0.5428
 9897SOL    HW229870   4.730   6.576   3.663  0.4564  0.6600 -2.4895
 9898SOL     OW29871   2.380   6.123   5.051 -0.0229  0.1422 -0.1007
 9898SOL    HW129872   2.444   6.087   4.983 -1.1991 -0.8130 -0.7267
 9898SOL    HW229873   2.410   6.215   5.079  2.6173 -0.9375  0.9805
 9899SOL     OW29874   6.222   2.156   5.890 -0.3005 -0.2665 -0.0173
 9899SOL    HW129875   6.224   2.196   5.799 -3.8797 -0.7709 -0.4333
 9899SOL    HW229876   6.196   2.226   5.957  0.5177 -0.3267  0.3851
 9900SOL     OW29877   6.884   5.849   6.996  0.2013  0.0155  0.4742
 9900SOL    HW129878   6.981   5.872   6.991  0.5062 -1.2080  0.2197
 9900SOL    HW229879   6.874   5.749   6.998 -0.9832  0.1298  2.1154
 9901SOL     OW29880   6.302   0.537   7.652  0.1335 -0.6032 -0.1524
 9901SOL    HW129881   6.232   0.601   7.620 -1.0981 -1.4512  0.7401
 9901SOL    HW229882   6.272   0.443   7.633  1.4742 -0.9671 -0.5950
 9902SOL     OW29883   8.722   5.783   5.127 -0.0065  0.1752 -0.2135
 9902SOL    HW129884   8.736   5.703   5.070 -2.7274 -0.7093  0.1921
 9902SOL    HW229885   8.664   5.759   5.205  1.3117  1.9605  1.4321
 9903SOL     OW29886   8.343   7.276   5.027  0.1411 -0.3857  0.3039
 9903SOL    HW129887   8.340   7.264   4.928  0.6100 -1.2325  0.3890
 9903SOL    HW229888   8.256   7.249   5.067  0.5422 -1.7485  0.2961
 9904SOL     OW29889   5.976   6.125   6.169 -0.2707 -0.4886  0.4070
 9904SOL    HW129890   5.990   6.038   6.123 -0.1433 -0.2324 -0.0471
 9904SOL    HW229891   5.927   6.188   6.109 -0.0767 -0.1401  0.6056
 9905SOL     OW29892   4.349   2.112   5.271 -0.3599 -0.0562  0.1329
 9905SOL    HW129893   4.374   2.028   5.224  1.3174  1.0443 -1.0326
 9905SOL    HW229894   4.351   2.096   5.370  2.9862 -0.6544  0.0648
 9906SOL     OW29895   5.367   1.840   4.189  0.4199 -0.4245  0.0134
 9906SOL    HW129896   5.317   1.767   4.235 -0.3746 -0.8020 -1.3865
 9906SOL    HW229897   5.429   1.885   4.254  0.2189 -1.7072  1.1230
 9907SOL     OW29898   2.741   6.438   8.731  0.1165  0.1133 -0.9720
 9907SOL    HW129899   2.730   6.340   8.715 -0.0109 -0.1875  0.7723
 9907SOL    HW229900   2.652   6.478   8.753  0.6326 -0.1444  1.9847
 9908SOL     OW29901   0.343   3.653   8.800 -0.2273  0.1451 -1.0724
 9908SOL    HW129902   0.371   3.746   8.824  2.8460 -0.5416 -1.5828
 9908SOL    HW229903   0.310   3.652   8.705 -2.4150  1.0131 -0.3939
 9909SOL     OW29904   8.018   6.159   7.520 -0.0383  0.0130 -0.0041
 9909SOL    HW129905   8.014   6.060   7.521 -2.3015  0.0500 -0.2652
 9909SOL    HW229906   8.032   6.193   7.614  0.3780 -0.5377  0.1333
 9910SOL     OW29907   8.739   0.126   2.341  0.2784 -0.2256 -0.3947
 9910SOL    HW129908   8.747   0.034   2.302  0.6463 -0.0884 -0.6467
 9910SOL    HW229909   8.658   0.171   2.303  0.4856 -0.1912 -0.8062
 9911SOL     OW29910   4.396   6.140   3.741 -0.0480  0.2081  0.3476
 9911SOL    HW129911   4.453   6.127   3.823  2.6169  1.4354 -1.1694
 9911SOL    HW229912   4.378   6.238   3.729 -1.2181 -0.0480 -0.0384
 9912SOL     OW29913   6.740   8.190   2.931  0.1106  0.4744  0.1334
 9912SOL    HW129914   6.752   8.271   2.988 -0.3826 -0.3906  1.5368
 9912SOL    HW229915   6.823   8.172   2.879  0.7671  1.0065  0.9807
 9913SOL     OW29916   1.661   7.392   0.262 -0.4592 -0.0709  0.6492
 9913SOL    HW129917   1.759   7.402   0.278 -0.3843 -0.7490  0.6558
 9913SOL    HW229918   1.634   7.450   0.185 -0.0837  0.2397  0.7465
 9914SOL     OW29919   6.613   0.922   5.253 -0.4941 -0.2354  0.3789
 9914SOL    HW129920   6.644   0.916   5.348  0.3557 -2.5448  0.0256
 9914SOL    HW229921   6.632   0.836   5.206 -3.4106 -0.1533 -1.1586
 9915SOL     OW29922   3.561   5.274   7.561 -0.1981 -0.8312  0.3453
 9915SOL    HW129923   3.499   5.318   7.496 -0.3835 -0.2710  0.8849
 9915SOL    HW229924   3.655   5.303   7.543 -0.3714  0.1868  0.9939
 9916SOL     OW29925   4.666   0.156   1.136 -0.1715 -0.5571  0.1054
 9916SOL    HW129926   4.645   0.072   1.186 -3.6617  0.6027  0.8956
 9916SOL    HW229927   4.688   0.134   1.041 -1.9088 -2.3855  0.0615
 9917SOL     OW29928   4.360   7.571   5.140  0.2668 -0.0807 -0.0499
 9917SOL    HW129929   4.409   7.517   5.208  3.6404  1.6645 -0.8595
 9917SOL    HW229930   4.380   7.668   5.154  0.7390  0.3781 -3.2029
 9918SOL     OW29931   6.947   2.870   6.497  0.1873 -0.9900 -0.1280
 9918SOL    HW129932   6.913   2.837   6.409  0.6766 -0.9693 -0.3251
 9918SOL    HW229933   6.920   2.965   6.510  0.2220 -0.9556 -0.3094
 9919SOL     OW29934   5.796   1.772   7.149 -0.3605 -0.4903 -0.0001
 9919SOL    HW129935   5.795   1.792   7.051  0.2367  0.5534  0.1919
 9919SOL    HW229936   5.758   1.850   7.199  1.4001 -0.0577  0.7365
 9920SOL     OW29937   8.502   1.564   6.951  0.5240  0.1929 -0.2915
 9920SOL    HW129938   8.546   1.490   7.001  0.1693 -0.5771 -1.0968
 9920SOL    HW229939   8.532   1.562   6.855  0.4278  1.0253 -0.3532
 9921SOL     OW29940   7.096   6.446   5.310 -0.1584  0.1564  0.3603
 9921SOL    HW129941   7.073   6.374   5.245 -1.2002  1.3978 -0.7046
 9921SOL    HW229942   7.193   6.468   5.302  0.2288 -1.2477  0.8624
 9922SOL     OW29943   0.451   1.911   7.212  0.3463  0.6193  0.9507
 9922SOL    HW129944   0.455   2.003   7.173 -1.0248  0.4468  0.3413
 9922SOL    HW229945   0.436   1.844   7.139  2.1312 -0.2102  1.2812
 9923SOL     OW29946   4.377   5.271   8.097  0.3537 -0.5333 -0.3701
 9923SOL    HW129947   4.435   5.352   8.100 -0.9570  0.4428 -0.5781
 9923SOL    HW229948   4.342   5.251   8.188 -2.0187  1.1998 -0.8128
 9924SOL     OW29949   8.049   3.872   4.699 -0.3257  0.5396 -0.5093
 9924SOL    HW129950   8.103   3.940   4.648  0.3169  1.4246  1.2626
 9924SOL    HW229951   7.954   3.900   4.700 -0.2469  0.8243 -0.7168
 9925SOL     OW29952   2.205   2.888   1.604  0.0282 -0.2840 -0.2331
 9925SOL    HW129953   2.188   2.882   1.703 -0.6502 -1.3544 -0.3913
 9925SOL    HW229954   2.285   2.832   1.581  0.5404  0.4290 -0.2259
 9926SOL     OW29955   0.830   4.885   2.078 -0.2638 -0.1624 -0.0978
 9926SOL    HW129956   0.801   4.936   2.159 -1.9518  0.4129 -1.0154
 9926SOL    HW229957   0.893   4.812   2.105  0.5760  1.0836  1.4952
 9927SOL     OW29958   6.791   3.271   0.982  0.0288 -0.2169  0.3805
 9927SOL    HW129959   6.863   3.285   0.913 -0.0873  0.1143  0.3227
 9927SOL    HW229960   6.782   3.174   1.001 -0.3528 -0.3648 -0.5114
 9928SOL     OW29961   8.366   1.048   6.613 -0.1311  0.6303  0.2286
 9928SOL    HW129962   8.413   0.959   6.612 -0.6506  0.2936  1.8225
 9928SOL    HW229963   8.346   1.077   6.520  2.7980  0.5661 -0.5088
 9929SOL     OW29964   2.430   6.949   6.234 -0.0850 -0.7465 -0.3316
 9929SOL    HW129965   2.526   6.937   6.210  0.0660 -0.2680  0.0290
 9929SOL    HW229966   2.396   6.866   6.279 -0.3815 -1.6788 -2.1790
 9930SOL     OW29967   2.447   5.245   4.136  0.1641 -0.1087  0.0161
 9930SOL    HW129968   2.517   5.303   4.096 -1.2487  0.9455 -0.9983
 9930SOL    HW229969   2.433   5.270   4.232  1.7855 -0.9623  0.5152
 9931SOL     OW29970   5.458   8.090   7.372  0.2358 -0.2412  0.0211
 9931SOL    HW129971   5.466   8.161   7.303  0.0342 -0.2246  0.0150
 9931SOL    HW229972   5.512   8.010   7.344 -1.1515 -0.8790 -0.9754
 9932SOL     OW29973   8.693   0.330   3.188 -0.2221  0.0141  0.1204
 9932SOL    HW129974   8.670   0.241   3.227 -0.2610  0.5741  1.4064
 9932SOL    HW229975   8.792   0.337   3.177 -0.1810  0.0241  0.5196
 9933SOL     OW29976   1.859   5.193   6.467  0.5475 -0.2454 -0.7200
 9933SOL    HW129977   1.800   5.176   6.546  0.1831 -1.4362 -1.2152
 9933SOL    HW229978   1.802   5.221   6.389  0.7810 -0.1798 -0.8675
 9934SOL     OW29979   3.882   7.413   7.360  0.6777  0.0550  0.3386
 9934SOL    HW129980   3.933   7.339   7.318  0.3960 -1.2429  2.1400
 9934SOL    HW229981   3.785   7.405   7.337  0.8697  0.8575 -0.7992
 9935SOL     OW29982   1.750   4.338   4.071  0.1197  0.3815  0.3700
 9935SOL    HW129983   1.733   4.327   4.169 -0.4184  2.6967  0.5811
 9935SOL    HW229984   1.822   4.275   4.042  0.3520 -0.2673  2.2491
 9936SOL     OW29985   5.630   3.685   5.567  0.2522  0.5095 -0.5958
 9936SOL    HW129986   5.634   3.657   5.663 -0.5038  1.9199 -0.1203
 9936SOL    HW229987   5.687   3.625   5.512 -0.1450 -0.9890  0.5725
 9937SOL     OW29988   1.078   2.174   4.141 -0.5768  0.2359 -0.3846
 9937SOL    HW129989   1.037   2.257   4.178  0.1945  0.0989  0.8334
 9937SOL    HW229990   1.154   2.145   4.200  0.4316 -0.2352 -1.8563
 9938SOL     OW29991   8.477   4.028   0.957  0.0276 -0.0832  0.1285
 9938SOL    HW129992   8.532   3.949   0.930  1.0576 -0.1850  2.3219
 9938SOL    HW229993   8.460   4.086   0.877  2.5515 -0.5255 -0.8087
 9939SOL     OW29994   4.485   7.822   8.443 -0.2921 -0.0905  0.3823
 9939SOL    HW129995   4.430   7.746   8.409 -0.1585 -0.9105  1.8870
 9939SOL    HW229996   4.424   7.895   8.474 -0.7505 -1.5124  3.2563
 9940SOL     OW29997   7.072   3.423   7.729  0.4518 -0.0105 -0.3792
 9940SOL    HW129998   6.986   3.474   7.740  1.1659  1.2442 -0.4693
 9940SOL    HW229999   7.052   3.325   7.731 -0.7112  0.2146  1.8129
 9941SOL     OW30000   6.005   1.510   8.360 -0.6074  0.1575 -0.8069
 9941SOL    HW130001   6.065   1.432   8.375  0.6104  1.1609 -0.3131
 9941SOL    HW230002   5.927   1.482   8.304 -0.7567 -1.6515  0.2231
 9942SOL     OW30003   7.743   5.482   4.752  0.8601 -0.2189  0.8504
 9942SOL    HW130004   7.664   5.422   4.738  1.1347 -0.3471 -0.2184
 9942SOL    HW230005   7.712   5.578   4.750  0.7206 -0.2675  0.4267
 9943SOL     OW30006   8.137   3.426   1.256 -0.4651  0.1660 -0.5709
 9943SOL    HW130007   8.113   3.460   1.347  0.8950 -0.7503  0.1728
 9943SOL    HW230008   8.222   3.373   1.262 -0.9175 -0.8122 -2.2021
 9944SOL     OW30009   4.875   3.748   7.356  0.1393  0.6012  0.7195
 9944SOL    HW130010   4.881   3.847   7.369  1.1878  0.6241  0.1524
 9944SOL    HW230011   4.953   3.704   7.401 -1.0423 -0.1139  2.1682
 9945SOL     OW30012   6.405   2.457   1.588 -0.0076  0.2764 -0.3269
 9945SOL    HW130013   6.451   2.543   1.607  2.2592 -0.5808 -1.4951
 9945SOL    HW230014   6.386   2.409   1.674 -0.8010  1.6559  0.2953
 9946SOL     OW30015   2.032   8.806   1.624  0.0164  0.0812  0.0289
 9946SOL    HW130016   1.985   8.760   1.549  1.4428  2.7540 -2.7231
 9946SOL    HW230017   1.980   8.888   1.650  0.1837 -0.1469  1.1686
 9947SOL     OW30018   5.395   5.183   1.286  0.4463  0.2917 -0.1412
 9947SOL    HW130019   5.468   5.168   1.353  1.9153  1.5120 -1.3823
 9947SOL    HW230020   5.422   5.256   1.223 -2.1142  1.1664 -0.3381
 9948SOL     OW30021   7.217   6.993   2.836  0.3767  0.1261 -0.1723
 9948SOL    HW130022   7.296   6.982   2.775 -0.3148  1.5305 -1.3868
 9948SOL    HW230023   7.249   7.003   2.930  1.5413 -0.8029 -0.4359
 9949SOL     OW30024   5.661   3.031   1.836 -0.1202 -0.3214  0.3322
 9949SOL    HW130025   5.730   2.964   1.807 -0.5936 -1.0726  0.9082
 9949SOL    HW230026   5.699   3.087   1.909 -0.2807 -1.0900  1.0246
 9950SOL     OW30027   2.957   4.651   2.235  0.3973  0.2890  0.0760
 9950SOL    HW130028   3.022   4.578   2.215 -2.3001 -2.5007  0.8347
 9950SOL    HW230029   2.885   4.653   2.166 -1.0560  0.3602  1.5212
 9951SOL     OW30030   3.190   6.314   2.973  0.5064  0.2482 -0.0578
 9951SOL    HW130031   3.145   6.366   3.046 -0.1620 -0.4097  0.0162
 9951SOL    HW230032   3.123   6.295   2.900  1.3296  1.5095 -1.2011
 9952SOL     OW30033   0.098   6.024   2.726 -0.1814 -0.1098  0.0619
 9952SOL    HW130034   0.071   6.067   2.812  0.8918  1.3643 -0.3069
 9952SOL    HW230035   0.192   5.990   2.734  0.3936  1.1792 -0.9019
 9953SOL     OW30036   1.498   1.008   4.506  0.0581 -0.2073 -0.2412
 9953SOL    HW130037   1.516   0.910   4.514  2.5386  0.2402  0.4962
 9953SOL    HW230038   1.403   1.027   4.530 -0.5195 -2.4351 -0.6156
 9954SOL     OW30039   1.270   4.673   1.118 -0.6293 -0.4735 -0.2683
 9954SOL    HW130040   1.362   4.709   1.136 -0.0401 -1.4579 -1.2507
 9954SOL    HW230041   1.230   4.722   1.041 -1.7358  1.2735  1.3140
 9955SOL     OW30042   1.873   5.230   4.120 -0.4072 -0.8156 -0.2558
 9955SOL    HW130043   1.884   5.275   4.032  1.4076 -0.6723  0.0134
 9955SOL    HW230044   1.929   5.147   4.123 -0.0417 -0.5463  0.9197
 9956SOL     OW30045   0.538   6.796   1.711  0.4097  0.4602  0.2565
 9956SOL    HW130046   0.616   6.780   1.651  1.0802  0.9348  0.9860
 9956SOL    HW230047   0.542   6.889   1.747 -1.0835  0.8667 -0.5289
 9957SOL     OW30048   6.564   0.515   8.264  0.5233  0.0825  0.3987
 9957SOL    HW130049   6.598   0.594   8.212  0.0927 -0.4607 -0.7379
 9957SOL    HW230050   6.591   0.525   8.360  1.9077  0.8029 -0.0246
 9958SOL     OW30051   7.365   1.185   3.643  0.2358 -0.0958  0.8640
 9958SOL    HW130052   7.313   1.100   3.647  1.2269 -0.7090  0.9989
 9958SOL    HW230053   7.357   1.234   3.730  0.0902 -0.3176  0.9750
 9959SOL     OW30054   8.061   2.735   4.329 -0.0493  0.3368 -0.0747
 9959SOL    HW130055   8.021   2.728   4.420 -1.3652 -0.1569 -0.6810
 9959SOL    HW230056   7.989   2.741   4.261  0.8695 -1.7241 -1.3036
 9960SOL     OW30057   6.008   2.779   7.483 -0.0337 -0.2094 -0.0134
 9960SOL    HW130058   6.028   2.756   7.388 -1.2005  0.5051 -0.4538
 9960SOL    HW230059   6.089   2.762   7.539  1.5114  1.7013 -1.5326
 9961SOL     OW30060   7.078   4.434   0.246  0.0568  0.2095 -0.3551
 9961SOL    HW130061   7.165   4.403   0.284 -0.3686  0.5814  0.9651
 9961SOL    HW230062   7.094   4.501   0.174  0.8560  0.2589 -0.1335
 9962SOL     OW30063   6.485   7.293   4.114  0.6292 -0.2358 -0.1148
 9962SOL    HW130064   6.530   7.227   4.053  0.1047  0.0801 -0.8542
 9962SOL    HW230065   6.488   7.258   4.208  0.5686 -1.2074 -0.4601
 9963SOL     OW30066   2.195   7.663   6.871 -0.0358  0.0588  0.2041
 9963SOL    HW130067   2.132   7.658   6.793  0.0878 -2.4827  0.1643
 9963SOL    HW230068   2.289   7.650   6.839  0.3496  1.9299  0.4857
 9964SOL     OW30069   1.627   6.881   1.907 -0.3586  0.0296 -0.0325
 9964SOL    HW130070   1.626   6.829   1.993 -0.8158 -1.3724 -0.8512
 9964SOL    HW230071   1.634   6.978   1.927  0.3352 -0.3227  1.5676
 9965SOL     OW30072   3.784   0.646   1.813 -0.2764  0.6687 -0.0688
 9965SOL    HW130073   3.791   0.624   1.910 -0.7360  2.4841  0.4118
 9965SOL    HW230074   3.700   0.699   1.797 -0.1908  0.4106 -1.4553
 9966SOL     OW30075   1.578   7.515   5.426 -0.2580 -0.1327 -0.1039
 9966SOL    HW130076   1.636   7.549   5.500  1.2318 -2.1781 -0.2339
 9966SOL    HW230077   1.524   7.437   5.460 -1.6088  0.6132 -0.4808
 9967SOL     OW30078   1.847   2.979   1.231 -0.1429 -0.8105 -0.2510
 9967SOL    HW130079   1.848   2.980   1.331  2.6582 -1.1908 -0.1875
 9967SOL    HW230080   1.752   2.976   1.198 -1.1142 -1.4055  2.3765
 9968SOL     OW30081   0.645   6.786   0.505 -0.0426 -0.6307 -0.0721
 9968SOL    HW130082   0.566   6.780   0.567 -0.9419 -0.4057 -1.1562
 9968SOL    HW230083   0.612   6.797   0.411  1.2684  2.0712 -0.3049
 9969SOL     OW30084   0.037   4.774   3.263  0.3404  0.2044  0.1015
 9969SOL    HW130085   0.079   4.834   3.194 -0.2686  0.5397  0.0160
 9969SOL    HW230086   0.099   4.765   3.340  1.0878 -0.2709 -0.5392
 9970SOL     OW30087   3.804   8.674   5.336  0.5375 -0.1999  0.5025
 9970SOL    HW130088   3.836   8.664   5.430  1.3534 -1.8546  0.0846
 9970SOL    HW230089   3.715   8.629   5.325  0.4691 -0.0560  0.4571
 9971SOL     OW30090   6.254   6.995   3.260 -0.5227  0.4592 -0.3319
 9971SOL    HW130091   6.301   6.916   3.298 -2.5600 -0.7793 -0.2765
 9971SOL    HW230092   6.309   7.077   3.278  0.3133 -0.5226  2.1060
 9972SOL     OW30093   7.434   8.644   8.279  0.2904  0.2135  0.0882
 9972SOL    HW130094   7.533   8.654   8.270  0.6447 -1.6845  1.2309
 9972SOL    HW230095   7.411   8.547   8.292 -1.5074  0.8157  2.0229
 9973SOL     OW30096   6.525   4.779   0.833 -0.0889  0.1900  0.3827
 9973SOL    HW130097   6.536   4.726   0.749  0.5739  1.2746 -0.2455
 9973SOL    HW230098   6.472   4.726   0.899 -1.8991 -0.1491 -1.2375
 9974SOL     OW30099   1.348   3.708   1.229 -0.1779 -0.0269 -0.1698
 9974SOL    HW130100   1.323   3.805   1.228  0.0991  0.0602  0.8671
 9974SOL    HW230101   1.447   3.700   1.242 -0.2086 -0.4543 -0.1899
 9975SOL     OW30102   1.250   5.795   0.812  0.2987  0.2482  0.1460
 9975SOL    HW130103   1.204   5.877   0.847  2.9568  1.9484 -0.0653
 9975SOL    HW230104   1.219   5.777   0.718 -1.5758 -0.0628  0.7916
 9976SOL     OW30105   2.476   4.458   1.205 -0.1145  0.5362 -0.2941
 9976SOL    HW130106   2.409   4.490   1.271  0.3337 -2.1775  1.6560
 9976SOL    HW230107   2.567   4.494   1.229 -0.1001  0.2847  0.0333
 9977SOL     OW30108   8.861   7.350   1.598  0.0207 -0.3860  0.4308
 9977SOL    HW130109   8.817   7.292   1.666  0.4034 -0.2491  0.7952
 9977SOL    HW230110   8.792   7.382   1.532 -0.4593  0.0097  1.1218
 9978SOL     OW30111   0.847   1.121   4.571  0.2627  0.3445  0.3111
 9978SOL    HW130112   0.871   1.098   4.477  0.2534  0.5633  0.2533
 9978SOL    HW230113   0.875   1.047   4.632  1.1354  0.6137  0.2503
 9979SOL     OW30114   1.475   2.430   8.751  0.2202  0.0151 -0.7856
 9979SOL    HW130115   1.476   2.497   8.677  0.7094 -0.3488 -1.1215
 9979SOL    HW230116   1.567   2.421   8.788  0.0319 -0.0169 -0.3274
 9980SOL     OW30117   0.766   4.094   3.922 -0.2495 -0.1817 -0.3301
 9980SOL    HW130118   0.775   3.997   3.901 -0.5204 -0.1895 -0.4155
 9980SOL    HW230119   0.853   4.140   3.907  1.1500 -1.1293  3.6144
 9981SOL     OW30120   3.342   7.236   3.472  0.2306  0.1050  0.0390
 9981SOL    HW130121   3.365   7.184   3.555  0.3307 -1.1511 -0.7556
 9981SOL    HW230122   3.343   7.176   3.393 -2.1422  0.7870 -0.5934
 9982SOL     OW30123   7.631   4.630   7.178  0.0288 -0.0630  0.4495
 9982SOL    HW130124   7.548   4.611   7.231  0.4770 -0.5181  1.0051
 9982SOL    HW230125   7.703   4.661   7.240  1.0913 -2.2207  0.3969
 9983SOL     OW30126   1.034   6.436   7.424 -0.1689  0.3414 -0.3484
 9983SOL    HW130127   1.111   6.498   7.437  0.4082 -0.2490 -0.8888
 9983SOL    HW230128   1.057   6.345   7.459 -1.6804  0.8260  2.2001
 9984SOL     OW30129   8.644   3.821   0.928  0.1126  0.0003  0.2420
 9984SOL    HW130130   8.688   3.820   1.018 -1.8840 -0.5826  1.2757
 9984SOL    HW230131   8.679   3.745   0.873  0.2073 -0.6151  1.1229
 9985SOL     OW30132   0.757   5.765   4.628  0.3984  0.8448  0.4231
 9985SOL    HW130133   0.676   5.787   4.574 -1.3743  0.1342  2.6115
 9985SOL    HW230134   0.793   5.675   4.600 -0.9802  0.1111  0.9008
 9986SOL     OW30135   5.255   8.754   1.963 -0.2657 -0.0794  0.0206
 9986SOL    HW130136   5.220   8.666   1.931 -0.0609 -0.0005 -0.4336
 9986SOL    HW230137   5.213   8.828   1.909 -0.3137  0.0913  0.2883
 9987SOL     OW30138   4.685   4.478   2.688  0.3789  0.3062 -0.0645
 9987SOL    HW130139   4.781   4.487   2.715  0.8524 -2.3348 -0.5682
 9987SOL    HW230140   4.664   4.382   2.674 -2.4240  0.8164  0.1597
 9988SOL     OW30141   0.175   0.611   0.373 -0.0304 -0.1908 -0.2728
 9988SOL    HW130142   0.226   0.572   0.450  1.5858  0.1692 -1.1257
 9988SOL    HW230143   0.093   0.658   0.408  0.2768 -0.6685  1.1458
 9989SOL     OW30144   6.042   6.402   0.210 -0.0081 -0.7038  0.1916
 9989SOL    HW130145   5.974   6.344   0.255 -0.2558 -1.4835 -1.1459
 9989SOL    HW230146   5.996   6.477   0.163 -0.0600 -1.6469 -1.3368
 9990SOL     OW30147   6.635   5.251   7.658 -0.2771 -0.3781 -0.1253
 9990SOL    HW130148   6.684   5.234   7.744 -0.8961  0.2488  0.3760
 9990SOL    HW230149   6.683   5.322   7.606 -0.0001 -0.6256 -0.2069
 9991SOL     OW30150   6.321   7.127   8.619  0.1761 -0.3411  0.3282
 9991SOL    HW130151   6.294   7.092   8.529  0.2487 -1.8174  0.8580
 9991SOL    HW230152   6.289   7.221   8.629 -2.4252 -1.0989 -0.1198
 9992SOL     OW30153   0.755   4.133   2.338 -0.0299 -0.4098  0.0807
 9992SOL    HW130154   0.761   4.088   2.427  0.2033 -1.1864 -0.3208
 9992SOL    HW230155   0.826   4.097   2.277 -0.6618 -0.4335 -0.6565
 9993SOL     OW30156   5.640   5.526   8.666  0.0985  0.1231  0.3575
 9993SOL    HW130157   5.736   5.505   8.645 -0.3953  0.2714 -2.3886
 9993SOL    HW230158   5.630   5.625   8.681  0.1418  0.3247 -0.8932
 9994SOL     OW30159   8.646   2.455   7.229  0.2947  0.4212 -0.4232
 9994SOL    HW130160   8.601   2.451   7.318 -2.2726  0.8597 -1.6081
 9994SOL    HW230161   8.712   2.380   7.222  3.4781  2.5035  3.1884
 9995SOL     OW30162   6.176   5.376   5.785  0.1194 -0.1876  0.2418
 9995SOL    HW130163   6.274   5.367   5.771 -0.0961 -0.6912 -1.1696
 9995SOL    HW230164   6.136   5.285   5.799 -0.3747 -0.1951 -1.0903
 9996SOL     OW30165   0.118   0.382   0.269 -0.2263 -0.6337 -0.4102
 9996SOL    HW130166   0.138   0.471   0.311 -3.9170 -0.3498  1.1183
 9996SOL    HW230167   0.154   0.309   0.327 -0.1450 -0.1738  0.1280
 9997SOL     OW30168   1.671   7.845   1.507  0.4037  0.1575  0.3226
 9997SOL    HW130169   1.683   7.752   1.542  1.2908  0.2639  0.3073
 9997SOL    HW230170   1.588   7.884   1.546 -0.4239 -0.9164 -0.2743
 9998SOL     OW30171   8.674   4.902   4.315 -0.0871 -0.8445  0.1817
 9998SOL    HW130172   8.703   4.883   4.222 -0.5985  0.2954 -0.2397
 9998SOL    HW230173   8.727   4.847   4.379  1.6652 -0.2219 -0.6636
 9999SOL     OW30174   4.893   1.956   8.013  0.0316  0.2384  0.2065
 9999SOL    HW130175   4.815   1.946   7.952  0.5693  1.7465 -0.7758
 9999SOL    HW230176   4.967   2.002   7.965  0.6054  1.1653  1.9034
10000SOL     OW30177   3.409   3.658   6.607  0.2143  0.6341  0.4244
10000SOL    HW130178   3.431   3.622   6.698  1.7198 -0.2821 -0.2718
10000SOL    HW230179   3.341   3.731   6.616 -0.8288 -0.4629  2.1409
10001SOL     OW30180   3.676   2.229   8.468 -0.2879 -0.6154  0.1612
10001SOL    HW130181   3.729   2.217   8.384 -1.1244  0.4020 -0.5429
10001SOL    HW230182   3.655   2.140   8.508  0.0063 -1.1203 -0.7837
10002SOL     OW30183   8.120   3.189   5.392  0.5990 -0.1302 -0.0680
10002SOL    HW130184   8.040   3.208   5.335  0.0896 -1.3514  0.2157
10002SOL    HW230185   8.093   3.189   5.488  0.7090 -1.5303 -0.0168
10003SOL     OW30186   2.076   4.200   2.736  0.2502 -0.0238 -0.0022
10003SOL    HW130187   2.031   4.122   2.692  2.5242 -1.9625  0.8894
10003SOL    HW230188   2.056   4.199   2.834 -1.1503  1.6469 -0.2197
10004SOL     OW30189   5.197   1.242   4.754  0.6938  0.2776 -0.4268
10004SOL    HW130190   5.235   1.185   4.682 -0.7258 -0.4688 -0.6210
10004SOL    HW230191   5.104   1.211   4.777 -1.6865  4.4643 -2.9695
10005SOL     OW30192   5.810   7.646   5.291 -0.4756  0.0809 -0.5714
10005SOL    HW130193   5.887   7.704   5.265 -1.3071  1.7674  0.5439
10005SOL    HW230194   5.726   7.681   5.249 -0.7891 -1.2419 -1.0994
10006SOL     OW30195   6.508   6.494   5.611 -0.1744  0.1200 -0.2457
10006SOL    HW130196   6.539   6.446   5.693  0.2441  0.3424 -0.2703
10006SOL    HW230197   6.495   6.428   5.537  0.8132  0.0868 -0.4007
10007SOL     OW30198   2.415   6.348   3.041 -0.4625 -0.1829 -0.0412
10007SOL    HW130199   2.421   6.438   2.997  0.7019  0.2769  1.0141
10007SOL    HW230200   2.319   6.326   3.058 -0.9386 -0.1534 -2.2934
10008SOL     OW30201   1.753   3.592   0.252 -0.2804  0.1860 -0.1315
10008SOL    HW130202   1.660   3.566   0.279 -0.6660  2.5338  1.0595
10008SOL    HW230203   1.771   3.557   0.160 -1.2111 -2.8132  0.7150
10009SOL     OW30204   5.116   0.872   5.252 -0.9212  0.1984 -0.1403
10009SOL    HW130205   5.211   0.865   5.219 -0.7190 -1.4974  0.6760
10009SOL    HW230206   5.102   0.961   5.295  0.6570  0.0688  0.7153
10010SOL     OW30207   7.016   2.199   6.015 -0.2403 -0.6275  0.2806
10010SOL    HW130208   7.087   2.206   6.086  2.5312 -2.1042 -2.1189
10010SOL    HW230209   6.965   2.115   6.027 -1.6820  0.4321  2.0195
10011SOL     OW30210   2.498   7.122   7.138  0.0535 -0.7033  0.3404
10011SOL    HW130211   2.445   7.113   7.053 -0.3280 -0.2151  0.5234
10011SOL    HW230212   2.553   7.039   7.152  1.1033 -0.2929 -1.0484
10012SOL     OW30213   2.358   6.236   6.648  0.0126 -0.1714 -0.7651
10012SOL    HW130214   2.272   6.194   6.678  0.2089 -0.1828 -0.2041
10012SOL    HW230215   2.364   6.329   6.684  1.0134 -0.7545  0.6913
10013SOL     OW30216   7.547   6.456   2.695  0.2865 -0.2244  0.0849
10013SOL    HW130217   7.568   6.434   2.600  2.5329  0.0658  0.4690
10013SOL    HW230218   7.447   6.457   2.707 -0.0441 -1.1500 -2.0257
10014SOL     OW30219   3.334   1.288   6.519 -0.3705 -0.3222  0.2255
10014SOL    HW130220   3.409   1.309   6.457  0.1073 -0.6787  0.6780
10014SOL    HW230221   3.304   1.372   6.564 -0.1315 -0.2087  0.1729
10015SOL     OW30222   7.207   0.276   7.211 -0.1816  0.1863 -0.3900
10015SOL    HW130223   7.153   0.269   7.295 -0.2607  0.5427 -0.4084
10015SOL    HW230224   7.199   0.191   7.159  0.6527 -0.3986  0.4238
10016SOL     OW30225   3.693   0.054   5.036 -0.5406  0.0981 -0.0371
10016SOL    HW130226   3.679   0.028   5.131  1.8756 -2.2949 -0.2161
10016SOL    HW230227   3.679  -0.026   4.977  1.9681  0.4525 -1.2346
10017SOL     OW30228   1.460   8.849   0.267 -0.4583 -0.6081 -0.5414
10017SOL    HW130229   1.453   8.775   0.334 -0.3849  0.5600  0.7811
10017SOL    HW230230   1.369   8.871   0.232 -0.7939  0.1617  0.7421
10018SOL     OW30231   3.422   7.359   2.513  0.3678  0.2626 -0.4795
10018SOL    HW130232   3.460   7.394   2.598 -0.8911 -0.5209  0.4287
10018SOL    HW230233   3.496   7.349   2.446  1.8659 -1.4376  1.2922
10019SOL     OW30234   8.793   8.829   4.674  0.5338  0.1973 -0.2136
10019SOL    HW130235   8.806   8.747   4.730  0.1821  0.9356  0.9926
10019SOL    HW230236   8.869   8.892   4.689  0.0598  0.7229  0.0299
10020SOL     OW30237   6.981   5.874   8.345 -0.7340 -0.5138 -0.0817
10020SOL    HW130238   6.881   5.878   8.354 -0.8119  0.0303 -1.0848
10020SOL    HW230239   7.018   5.811   8.414 -1.8759 -1.7312 -0.5366
10021SOL     OW30240   4.747   6.945   3.111 -0.2422  0.4280  0.8042
10021SOL    HW130241   4.780   6.860   3.070  1.0196  0.9691  0.6568
10021SOL    HW230242   4.821   7.012   3.112 -1.2528  1.5758  0.7974
10022SOL     OW30243   3.832   4.588   5.522 -0.2785  0.3545  0.6414
10022SOL    HW130244   3.853   4.560   5.616 -0.1987  1.5693  1.0025
10022SOL    HW230245   3.911   4.571   5.464 -0.0031  0.4353  0.9883
10023SOL     OW30246   2.642   3.383   0.931  0.1174  0.1831 -0.3192
10023SOL    HW130247   2.627   3.464   0.988  2.3636 -0.5922  1.5272
10023SOL    HW230248   2.696   3.408   0.851 -0.9669  0.8299 -0.8833
10024SOL     OW30249   4.066   5.162   7.962 -0.2614  0.0396 -0.1707
10024SOL    HW130250   3.975   5.171   7.922 -0.4318 -2.4259 -0.4824
10024SOL    HW230251   4.122   5.241   7.936 -1.6493  0.5593 -1.7463
10025SOL     OW30252   6.472   3.441   1.501 -0.3225  0.1284  0.0355
10025SOL    HW130253   6.414   3.521   1.517 -0.7524  0.2833 -2.0054
10025SOL    HW230254   6.423   3.376   1.441  0.7501 -0.7770  0.1184
10026SOL     OW30255   0.017   3.915   6.246 -0.2090  0.2209 -0.2166
10026SOL    HW130256   0.115   3.901   6.263 -0.0979 -0.3199 -1.2092
10026SOL    HW230257   0.003   3.937   6.150 -1.3218 -2.9802 -0.9332
10027SOL     OW30258   1.516   4.611   2.171 -0.0934 -0.0776  0.6113
10027SOL    HW130259   1.567   4.660   2.100  0.5763 -1.6448 -0.0409
10027SOL    HW230260   1.424   4.650   2.180  0.3607  1.1781  0.0386
10028SOL     OW30261   6.751   5.341   8.386  1.0480 -0.1804  0.1500
10028SOL    HW130262   6.756   5.350   8.287  3.4979 -0.6142  0.1547
10028SOL    HW230263   6.691   5.412   8.423  1.0055  0.7393 -1.5581
10029SOL     OW30264   4.619   8.464   7.903  0.1024  0.5842 -0.5537
10029SOL    HW130265   4.686   8.441   7.832 -0.2680 -0.7922 -0.4997
10029SOL    HW230266   4.543   8.399   7.899  0.6140 -0.2894  1.8106
10030SOL     OW30267   0.028   5.962   1.841 -0.0948 -0.3013 -1.0352
10030SOL    HW130268   0.099   5.921   1.898  0.3048 -0.5672 -1.7114
10030SOL    HW230269  -0.044   6.000   1.900  0.4086 -0.3732 -0.3529
10031SOL     OW30270   8.112   2.990   3.868 -0.4310  0.3620  0.2226
10031SOL    HW130271   8.090   2.952   3.958 -0.9802 -0.4698 -0.2455
10031SOL    HW230272   8.149   3.082   3.879  0.3163 -0.0520  1.3492
10032SOL     OW30273   2.424   4.224   4.676 -0.0674  0.1282  0.3332
10032SOL    HW130274   2.372   4.141   4.694 -0.2209  0.4975  1.6542
10032SOL    HW230275   2.477   4.250   4.757  0.0211  1.2929 -0.0695
10033SOL     OW30276   3.198   2.954   0.382  0.3258 -0.3776  0.3753
10033SOL    HW130277   3.297   2.959   0.399  0.2254 -0.2150  0.9202
10033SOL    HW230278   3.170   2.858   0.380  0.2055 -0.4087  2.0006
10034SOL     OW30279   7.813   8.704   2.116 -0.0401 -0.1462 -0.2436
10034SOL    HW130280   7.897   8.714   2.063  0.0771 -2.6905 -0.6959
10034SOL    HW230281   7.835   8.698   2.213  0.7271 -3.2724 -0.4812
10035SOL     OW30282   3.367   0.416   2.584  0.5055  0.0513 -0.1644
10035SOL    HW130283   3.324   0.358   2.653  0.4924  0.3656  0.0884
10035SOL    HW230284   3.325   0.396   2.495  0.8632 -0.7063 -0.1743
10036SOL     OW30285   0.504   8.854   8.685  0.2794 -0.3934 -0.6210
10036SOL    HW130286   0.471   8.936   8.640 -1.7051 -0.3606  0.7731
10036SOL    HW230287   0.435   8.782   8.679  1.3135 -1.4268 -0.4309
10037SOL     OW30288   7.040   1.106   5.304  0.8149  0.3497 -0.2219
10037SOL    HW130289   6.962   1.148   5.351  0.8963  1.3152 -0.9157
10037SOL    HW230290   7.008   1.048   5.230  0.7020 -0.8337  0.7201
10038SOL     OW30291   5.104   3.205   5.815 -0.3364 -0.4818 -0.5377
10038SOL    HW130292   5.040   3.141   5.775 -0.0642 -0.3465 -1.1923
10038SOL    HW230293   5.198   3.173   5.800 -0.2496 -1.3876  1.5830
10039SOL     OW30294   1.063   6.964   7.438  0.2996 -0.2383  0.4522
10039SOL    HW130295   0.993   7.031   7.413 -0.7094 -0.2567  2.9604
10039SOL    HW230296   1.026   6.872   7.426  0.3368 -0.2755  0.6339
10040SOL     OW30297   4.593   8.846   0.281 -0.2510 -0.0655  0.1528
10040SOL    HW130298   4.582   8.916   0.352  0.3694  1.5413 -1.2674
10040SOL    HW230299   4.600   8.756   0.324 -1.6927  0.6366  2.0089
10041SOL     OW30300   4.198   1.937   8.481  0.0579  0.0738 -0.7493
10041SOL    HW130301   4.129   1.883   8.528  0.3735 -0.0236 -0.3961
10041SOL    HW230302   4.202   2.029   8.522  0.7614 -0.2061 -0.1724
10042SOL     OW30303   5.348   4.535   7.452 -0.5595  0.2981 -0.0128
10042SOL    HW130304   5.249   4.523   7.453 -0.5228  0.0300  0.5116
10042SOL    HW230305   5.374   4.609   7.515 -0.4180  0.3122 -0.0856
10043SOL     OW30306   2.220   7.390   5.990  1.2881  0.6395  0.3461
10043SOL    HW130307   2.234   7.331   6.070  1.8524  0.2551 -0.0247
10043SOL    HW230308   2.295   7.377   5.926  1.1978  1.4624  0.0633
10044SOL     OW30309   1.513   3.699   7.274 -0.8433  0.5507 -0.1539
10044SOL    HW130310   1.591   3.638   7.263 -0.3825  1.3349 -1.6307
10044SOL    HW230311   1.520   3.748   7.361 -0.6085 -0.6329  0.5026
10045SOL     OW30312   1.211   8.649   8.837 -0.5511 -0.2245 -0.2015
10045SOL    HW130313   1.153   8.723   8.803 -1.6092 -0.6187  0.6964
10045SOL    HW230314   1.306   8.669   8.814 -0.8138  1.3855 -0.0285
10046SOL     OW30315   6.003   6.266   4.649 -0.4685  0.2497  0.1502
10046SOL    HW130316   6.089   6.232   4.611 -0.8137 -0.3495 -0.1094
10046SOL    HW230317   6.019   6.300   4.742  0.5394  2.4316 -0.7364
10047SOL     OW30318   8.566   1.037   2.116 -0.0430 -0.1190  0.6956
10047SOL    HW130319   8.643   0.975   2.103  0.1666  0.1871  0.4694
10047SOL    HW230320   8.558   1.061   2.213  1.2333  1.2290  0.5081
10048SOL     OW30321   2.408   4.143   0.579  0.3395  0.2055  0.1203
10048SOL    HW130322   2.380   4.060   0.529  0.4478 -0.4357  1.0988
10048SOL    HW230323   2.480   4.189   0.527 -0.9442  0.6640 -1.3085
10049SOL     OW30324   4.874   5.850   6.814 -0.0522  0.1921  0.2902
10049SOL    HW130325   4.800   5.813   6.758 -0.5536  0.3597  0.8229
10049SOL    HW230326   4.918   5.926   6.767 -1.5741  1.4389  0.8098
10050SOL     OW30327   4.782   7.747   2.743 -0.0247  0.3164  0.2669
10050SOL    HW130328   4.706   7.737   2.679 -0.3745  3.0284  0.1516
10050SOL    HW230329   4.863   7.700   2.708  0.1013  2.5316 -2.7336
10051SOL     OW30330   8.151   1.668   2.342 -0.2318  0.1100  0.2252
10051SOL    HW130331   8.216   1.643   2.413 -0.0999  0.8770  0.3907
10051SOL    HW230332   8.142   1.594   2.276 -1.7085 -1.3792  1.9979
10052SOL     OW30333   3.355   7.780   4.837 -0.5048 -0.1392  0.1647
10052SOL    HW130334   3.322   7.776   4.743 -0.0383 -1.0316  0.0359
10052SOL    HW230335   3.433   7.843   4.842  0.6248 -1.4685 -0.4084
10053SOL     OW30336   6.832   0.276   8.039 -0.8693 -0.2120  0.1437
10053SOL    HW130337   6.810   0.257   7.943  2.1064 -0.0242 -0.6591
10053SOL    HW230338   6.861   0.192   8.084 -1.9483 -0.2369  0.8327
10054SOL     OW30339   4.745   1.415   4.361  0.3889 -0.7713 -1.0753
10054SOL    HW130340   4.692   1.473   4.300 -0.9948  0.6287  1.2876
10054SOL    HW230341   4.834   1.457   4.379 -0.3448  0.3663  0.0890
10055SOL     OW30342   2.130   4.742   8.274 -0.2719  0.5121  0.7189
10055SOL    HW130343   2.065   4.704   8.209  0.4017  0.4872  0.0450
10055SOL    HW230344   2.179   4.818   8.232  0.5389  0.1612  1.0035
10056SOL     OW30345   5.202   5.899   3.201  0.5200 -0.5096 -0.7981
10056SOL    HW130346   5.127   5.834   3.215 -2.2418  2.6032  0.3666
10056SOL    HW230347   5.199   5.934   3.108 -0.9975  1.1603 -0.1868
10057SOL     OW30348   1.979   2.813   8.551 -1.3197 -0.2027 -0.2820
10057SOL    HW130349   2.036   2.889   8.581  0.0673 -0.1164 -2.8410
10057SOL    HW230350   2.036   2.746   8.502 -3.0654 -1.2072 -1.0327
10058SOL     OW30351   2.059   0.912   0.629  0.0703  0.3559  0.2352
10058SOL    HW130352   2.045   0.815   0.608  0.9093  0.5194 -1.2347
10058SOL    HW230353   2.029   0.931   0.722  1.5449 -1.6962  1.2051
10059SOL     OW30354   4.771   5.696   5.892  0.1830  0.3556 -0.3447
10059SOL    HW130355   4.815   5.721   5.805  1.4166  0.8324  0.3888
10059SOL    HW230356   4.691   5.638   5.874  0.0545  0.9519 -1.8262
10060SOL     OW30357   2.042   2.765   6.772 -0.0861 -0.5557  0.0650
10060SOL    HW130358   1.967   2.740   6.832  0.0368  0.6505  0.7551
10060SOL    HW230359   2.010   2.830   6.703  0.3012 -0.1223  0.2921
10061SOL     OW30360   1.018   6.106   8.037 -0.7286 -0.5006 -0.4881
10061SOL    HW130361   1.073   6.144   7.964  1.1622 -0.3143  0.9624
10061SOL    HW230362   1.077   6.059   8.103 -2.1367  0.6306  1.7191
10062SOL     OW30363   2.316   4.726   5.249 -0.3040  0.3857 -0.1682
10062SOL    HW130364   2.225   4.684   5.256 -0.4744  0.7595 -0.1416
10062SOL    HW230365   2.379   4.660   5.208 -0.7386  0.3517 -0.7927
10063SOL     OW30366   3.412   1.544   4.246 -0.2543  0.5034 -0.2278
10063SOL    HW130367   3.475   1.601   4.193  0.5149  0.3001  0.4657
10063SOL    HW230368   3.409   1.452   4.206 -0.9523  0.8081 -0.9138
10064SOL     OW30369   8.690   3.711   8.493 -0.0004 -0.3048 -0.3823
10064SOL    HW130370   8.771   3.733   8.548 -0.5585 -0.0453  0.3685
10064SOL    HW230371   8.705   3.740   8.399  0.2527  1.0424  0.0467
10065SOL     OW30372   0.064   0.627   3.048  0.4212 -0.6433  0.6894
10065SOL    HW130373   0.097   0.546   3.000 -0.4308 -0.6165  0.0288
10065SOL    HW230374  -0.034   0.640   3.029  0.2371 -0.1986  1.8361
10066SOL     OW30375   3.428   7.509   4.920 -0.2672 -0.3123  0.2115
10066SOL    HW130376   3.413   7.588   4.860  1.0696 -0.5427 -0.4663
10066SOL    HW230377   3.486   7.443   4.873  0.4058 -0.7179  1.5894
10067SOL     OW30378   2.185   4.293   0.195  0.0320  0.0908  0.1819
10067SOL    HW130379   2.209   4.311   0.100  0.6734  0.5187  0.4204
10067SOL    HW230380   2.085   4.288   0.204 -0.0202 -1.8451 -0.8524
10068SOL     OW30381   5.276   7.017   1.663 -0.0295 -0.0589 -0.4460
10068SOL    HW130382   5.347   7.004   1.593  1.0497  0.3905  0.5367
10068SOL    HW230383   5.260   6.930   1.710  0.7805  0.1065  0.1584
10069SOL     OW30384   8.075   7.085   5.351  0.7193  0.1914 -0.4838
10069SOL    HW130385   8.102   7.180   5.362  0.4340  0.3189 -0.8470
10069SOL    HW230386   8.019   7.056   5.429 -0.9506  0.9587 -1.3362
10070SOL     OW30387   0.749   5.167   1.478 -0.2891  0.4233  0.4717
10070SOL    HW130388   0.708   5.207   1.396  0.6362  1.9984  0.7442
10070SOL    HW230389   0.678   5.157   1.549 -1.0414 -0.7388 -0.4043
10071SOL     OW30390   5.849   3.696   7.302 -0.6106  0.4009  0.1156
10071SOL    HW130391   5.947   3.681   7.317 -0.7957 -0.5562  0.4150
10071SOL    HW230392   5.833   3.710   7.204 -0.3480 -0.8729 -0.1261
10072SOL     OW30393   1.692   5.442   2.110 -0.0860  0.1976  0.1335
10072SOL    HW130394   1.782   5.399   2.106 -0.1991  0.0213 -0.5519
10072SOL    HW230395   1.702   5.539   2.134  0.1261 -0.3213  2.3472
10073SOL     OW30396   1.651   3.501   1.825  0.2088  0.5784 -0.3201
10073SOL    HW130397   1.634   3.598   1.840 -0.7265  0.3781 -0.0174
10073SOL    HW230398   1.746   3.480   1.847  0.1792  1.2468  0.5043
10074SOL     OW30399   7.775   4.870   7.823 -0.6898  0.7090 -0.2410
10074SOL    HW130400   7.767   4.960   7.781 -0.4092  0.1754 -1.5093
10074SOL    HW230401   7.856   4.823   7.786 -2.6613 -1.3759 -2.2541
10075SOL     OW30402   5.845   5.940   1.996 -0.0698 -0.0732  0.4781
10075SOL    HW130403   5.779   6.002   2.037  0.1507 -0.4591  1.4498
10075SOL    HW230404   5.797   5.860   1.959 -0.2441  0.1209  0.2888
10076SOL     OW30405   3.544   1.467   0.025 -0.5849  0.5106  0.1395
10076SOL    HW130406   3.554   1.421  -0.063 -0.4253 -1.1654  0.9986
10076SOL    HW230407   3.590   1.556   0.021  0.1807  0.0943 -1.1833
10077SOL     OW30408   0.026   3.372   4.622 -0.2821 -0.3714 -0.4221
10077SOL    HW130409   0.054   3.455   4.671 -0.8796 -0.5747  0.2888
10077SOL    HW230410  -0.023   3.397   4.539 -2.1043  0.0400  0.7179
10078SOL     OW30411   2.291   7.589   2.495 -0.4944  0.2923 -0.2734
10078SOL    HW130412   2.253   7.518   2.435 -1.3677 -1.0430  1.7589
10078SOL    HW230413   2.227   7.666   2.498 -0.4593  0.3619 -1.0138
10079SOL     OW30414   7.922   8.021   2.169 -0.1197 -0.3039  0.8490
10079SOL    HW130415   7.980   8.101   2.155 -0.3373 -0.0726  1.2353
10079SOL    HW230416   7.934   7.987   2.262  0.6845 -1.3098  0.3910
10080SOL     OW30417   3.241   5.673   7.517 -0.0546  0.0208  0.4318
10080SOL    HW130418   3.265   5.742   7.586  0.6621  1.5329 -1.2518
10080SOL    HW230419   3.142   5.676   7.499 -0.0915  0.2960  0.6829
10081SOL     OW30420   1.765   6.463   4.466 -0.9074 -0.1935 -0.2491
10081SOL    HW130421   1.699   6.489   4.396 -1.9698 -0.4820  0.6177
10081SOL    HW230422   1.857   6.461   4.426 -1.3095  0.9469 -1.2914
10082SOL     OW30423   5.937   2.794   3.685 -0.3360 -0.1463 -0.2246
10082SOL    HW130424   6.021   2.752   3.650  0.9633  2.0047  0.1361
10082SOL    HW230425   5.859   2.758   3.635  0.9156 -1.3049 -1.4410
10083SOL     OW30426   8.797   3.698   4.036  0.4802 -0.1801  0.1026
10083SOL    HW130427   8.892   3.687   4.064  1.2094  1.1491 -1.6922
10083SOL    HW230428   8.762   3.786   4.069 -0.2804 -0.8419  1.1067
10084SOL     OW30429   5.036   6.078   4.782 -0.3366 -0.3375 -0.2227
10084SOL    HW130430   5.063   6.005   4.720 -2.0978 -0.1445 -1.2514
10084SOL    HW230431   4.942   6.064   4.812 -0.2262  0.7538  0.6938
10085SOL     OW30432   4.106   7.760   1.333  0.0999  0.3685 -0.0239
10085SOL    HW130433   4.040   7.703   1.383 -1.0386  0.0413 -1.8016
10085SOL    HW230434   4.082   7.856   1.344 -0.3752  0.2783 -0.2021
10086SOL     OW30435   7.211   3.692   7.404  0.5034 -0.5145  0.3077
10086SOL    HW130436   7.152   3.612   7.405  0.6880 -0.6683  1.7902
10086SOL    HW230437   7.307   3.663   7.399  0.5571 -0.3887  0.5693
10087SOL     OW30438   1.217   0.514   6.549 -0.2947 -0.5072  0.0353
10087SOL    HW130439   1.270   0.430   6.558  1.6039  0.7275  1.2472
10087SOL    HW230440   1.275   0.586   6.511 -1.4019  0.6628  0.4613
10088SOL     OW30441   6.503   4.003   1.668 -0.1864 -0.0623  0.1582
10088SOL    HW130442   6.492   3.979   1.765  1.4671  0.1603  0.4262
10088SOL    HW230443   6.587   3.962   1.633  0.5783  1.9267 -0.4840
10089SOL     OW30444   0.394   4.823   0.462  0.4548 -0.2028  0.4438
10089SOL    HW130445   0.401   4.760   0.540 -1.3890 -1.2715 -0.1849
10089SOL    HW230446   0.301   4.821   0.426  1.6546 -1.3002 -3.0256
10090SOL     OW30447   5.678   7.097   6.069  0.0741 -0.2053  0.2871
10090SOL    HW130448   5.591   7.052   6.090 -0.0028 -0.1429  0.1017
10090SOL    HW230449   5.707   7.074   5.976 -0.9905  1.7206 -0.5741
10091SOL     OW30450   1.329   3.165   2.602  0.0126 -1.0773  0.3304
10091SOL    HW130451   1.406   3.228   2.608 -0.3066 -0.7307  0.8220
10091SOL    HW230452   1.278   3.165   2.688 -1.5569  0.0034 -0.5538
10092SOL     OW30453   3.795   0.635   7.237  0.1538 -0.6448 -0.0697
10092SOL    HW130454   3.707   0.588   7.246  0.6493 -1.5352  0.2704
10092SOL    HW230455   3.825   0.668   7.326  0.5487 -1.0700 -0.0400
10093SOL     OW30456   0.352   0.397   4.634  0.2317 -0.8484 -0.0200
10093SOL    HW130457   0.387   0.463   4.700 -1.7371 -0.2384  0.4692
10093SOL    HW230458   0.256   0.417   4.614  0.6743 -1.2084 -2.8587
10094SOL     OW30459   1.098   1.455   2.703 -0.3546  0.3293 -0.3491
10094SOL    HW130460   1.159   1.399   2.647 -0.6579  0.3482 -0.7082
10094SOL    HW230461   1.057   1.526   2.646 -1.1498 -0.0386 -0.2574
10095SOL     OW30462   1.480   3.153   8.060 -0.4056 -0.0205 -0.9064
10095SOL    HW130463   1.538   3.072   8.068  1.5385  1.4528  1.0983
10095SOL    HW230464   1.390   3.135   8.099  0.6035 -0.7378  1.2371
10096SOL     OW30465   6.324   6.189   6.063  1.0324  0.1034  0.2585
10096SOL    HW130466   6.280   6.149   6.143 -1.1918  0.6942 -0.6019
10096SOL    HW230467   6.379   6.120   6.016  0.4865 -0.8555  1.0120
10097SOL     OW30468   8.554   4.639   6.961  0.7063  0.4021  0.3228
10097SOL    HW130469   8.620   4.577   6.919  1.2157  1.1126  0.0535
10097SOL    HW230470   8.539   4.611   7.056  0.8690 -0.1703  0.1860
10098SOL     OW30471   5.159   4.402   7.923  0.5899  0.7463 -0.5321
10098SOL    HW130472   5.180   4.329   7.858  0.4175  0.4091 -0.2052
10098SOL    HW230473   5.239   4.460   7.935  1.0102  0.0758 -0.0892
10099SOL     OW30474   2.216   4.880   4.027  0.5799  0.3376  0.6167
10099SOL    HW130475   2.257   4.833   3.948  0.8765 -0.4592  1.2276
10099SOL    HW230476   2.250   4.974   4.031 -0.1445  0.6838 -0.7261
10100SOL     OW30477   6.721   7.704   1.307 -0.2962  0.0833 -0.0332
10100SOL    HW130478   6.739   7.758   1.225 -1.4119  2.4388  1.1673
10100SOL    HW230479   6.787   7.729   1.378  0.0153 -1.1651  0.1292
10101SOL     OW30480   1.258   8.561   2.042  0.5716  0.3570  0.3316
10101SOL    HW130481   1.313   8.580   2.123  0.7403  1.2364  0.0152
10101SOL    HW230482   1.297   8.483   1.994  2.0509  1.4496 -0.3250
10102SOL     OW30483   8.615   5.853   3.330 -0.4020 -0.1421 -1.0730
10102SOL    HW130484   8.633   5.755   3.319  0.5014 -0.3155  1.2689
10102SOL    HW230485   8.614   5.897   3.240  1.4544 -1.9201 -2.0654
10103SOL     OW30486   3.937   8.222   6.048  0.3114  0.2455 -0.2877
10103SOL    HW130487   3.919   8.239   6.145  0.6099 -0.5141 -0.0966
10103SOL    HW230488   3.902   8.132   6.023  2.3546 -0.6132 -0.2828
10104SOL     OW30489   0.547   1.506   3.558 -0.2044 -0.0760 -0.3159
10104SOL    HW130490   0.643   1.492   3.579  0.1026  1.6375 -0.4309
10104SOL    HW230491   0.530   1.483   3.462  0.5522  1.5264 -0.8589
10105SOL     OW30492   2.987   5.212   7.204 -0.8693 -0.0195  0.1445
10105SOL    HW130493   2.985   5.257   7.115  0.9991  1.2856  0.7047
10105SOL    HW230494   3.074   5.230   7.248 -1.5473 -1.0998  2.0294
10106SOL     OW30495   3.871   0.903   4.628 -0.2487  0.3846 -0.2889
10106SOL    HW130496   3.876   0.805   4.609 -0.7826  0.0880  0.9639
10106SOL    HW230497   3.920   0.954   4.557  0.7772 -0.8415 -0.5016
10107SOL     OW30498   7.866   6.528   8.666 -0.3194 -0.1192  0.4668
10107SOL    HW130499   7.921   6.513   8.748  0.8501 -1.0762 -0.4533
10107SOL    HW230500   7.779   6.478   8.675  0.5146 -1.6369  0.4561
10108SOL     OW30501   8.083   5.891   8.858 -0.1066 -0.1704  0.4114
10108SOL    HW130502   8.098   5.990   8.854  1.5319 -0.2877  2.1045
10108SOL    HW230503   8.129   5.847   8.780 -1.0517  0.3880 -0.4880
10109SOL     OW30504   5.403   6.734   5.469  0.0060 -0.2676 -0.1112
10109SOL    HW130505   5.359   6.663   5.523 -2.2016  1.2368  0.1769
10109SOL    HW230506   5.463   6.789   5.527 -0.2840 -0.3122  0.2303
10110SOL     OW30507   4.034   4.966   8.690 -0.4152 -0.1677 -0.1940
10110SOL    HW130508   4.086   4.886   8.662 -0.7772  0.0212 -1.4392
10110SOL    HW230509   4.088   5.049   8.672  0.5175 -0.1457  2.3149
10111SOL     OW30510   0.184   6.599   1.278 -0.5429 -0.4321 -0.2117
10111SOL    HW130511   0.227   6.627   1.192  0.1583 -1.4916 -0.2191
10111SOL    HW230512   0.107   6.660   1.297  0.5071  1.0665 -0.5640
10112SOL     OW30513   0.433   0.392   7.212  0.3667 -0.3600 -0.3923
10112SOL    HW130514   0.366   0.460   7.184 -0.7813 -1.0182  0.6509
10112SOL    HW230515   0.397   0.300   7.193  0.6208 -0.7480  0.8755
10113SOL     OW30516   8.553   6.710   7.677 -0.0299 -0.0202 -0.0578
10113SOL    HW130517   8.475   6.739   7.622  0.2550  1.7164  0.3788
10113SOL    HW230518   8.534   6.622   7.719 -2.1336  0.7448  0.7351
10114SOL     OW30519   5.494   1.853   4.975 -0.5634  0.1220  0.0270
10114SOL    HW130520   5.568   1.856   4.907 -0.2081  0.3806  0.4143
10114SOL    HW230521   5.414   1.901   4.940  0.0050  1.2780  0.2275
10115SOL     OW30522   1.994   8.471   6.148 -0.6012  0.1340  0.6498
10115SOL    HW130523   1.907   8.482   6.196 -2.4330  1.6741 -2.6739
10115SOL    HW230524   2.032   8.562   6.128 -0.5550 -0.3511 -1.7308
10116SOL     OW30525   7.768   6.469   2.158 -0.0724 -0.0560  0.0300
10116SOL    HW130526   7.741   6.562   2.136  0.5062 -0.0179 -0.5492
10116SOL    HW230527   7.689   6.408   2.149 -0.8316  0.5799  1.8762
10117SOL     OW30528   3.099   3.706   8.247 -0.0148  0.2857 -0.1727
10117SOL    HW130529   3.013   3.727   8.294 -0.5644 -0.0733 -0.9956
10117SOL    HW230530   3.114   3.772   8.174 -0.9112 -1.0979 -1.6888
10118SOL     OW30531   4.350   2.137   7.018 -0.2799  0.6012 -0.3730
10118SOL    HW130532   4.265   2.111   6.972  0.1202 -0.9834 -0.2901
10118SOL    HW230533   4.404   2.055   7.037 -0.6137  1.0720  3.3065
10119SOL     OW30534   5.456   1.937   0.383  0.4524  0.3446 -0.1456
10119SOL    HW130535   5.459   1.957   0.481  1.7524  2.0264 -0.4782
10119SOL    HW230536   5.410   2.012   0.335 -1.1865 -0.9967 -0.7299
10120SOL     OW30537   3.061   0.027   6.344 -0.2785 -0.0010  0.3709
10120SOL    HW130538   3.017  -0.056   6.310 -0.5459  0.2884  0.0043
10120SOL    HW230539   3.160   0.011   6.351 -0.2998 -0.2802  0.0896
10121SOL     OW30540   7.444   6.735   3.545 -0.1381  0.0562  0.4167
10121SOL    HW130541   7.387   6.750   3.626  0.6455 -0.4973  1.0845
10121SOL    HW230542   7.513   6.666   3.565 -0.0499 -0.2330 -0.7936
10122SOL     OW30543   3.044   1.206   8.755 -0.6030  0.1951 -0.4156
10122SOL    HW130544   2.995   1.290   8.779 -1.0130 -0.2481  0.3166
10122SOL    HW230545   3.048   1.146   8.834  1.8059  0.5226 -0.2029
10123SOL     OW30546   5.439   4.717   2.019 -0.0760  0.2605  0.4689
10123SOL    HW130547   5.397   4.741   1.931 -1.2228  1.4729  1.3137
10123SOL    HW230548   5.424   4.620   2.037  0.7116 -0.1556 -0.9346
10124SOL     OW30549   0.961   3.531   7.485 -0.1556 -0.1569 -0.3646
10124SOL    HW130550   1.009   3.613   7.453 -1.1602  0.7185  0.3134
10124SOL    HW230551   0.865   3.535   7.458  0.2536 -2.2958 -2.4238
10125SOL     OW30552   5.547   8.806   2.538  0.2075 -0.3378  0.0062
10125SOL    HW130553   5.510   8.837   2.626  0.8469 -0.0251  0.1732
10125SOL    HW230554   5.628   8.860   2.515  0.1452 -0.5301 -0.6981
10126SOL     OW30555   3.065   2.335   8.269 -0.3132 -0.1162 -0.5726
10126SOL    HW130556   3.014   2.300   8.348 -0.3730 -0.7828 -0.9007
10126SOL    HW230557   3.053   2.273   8.192 -0.2224  0.5075 -1.0990
10127SOL     OW30558   7.240   8.393   8.488  0.1647  0.4918  0.0819
10127SOL    HW130559   7.219   8.296   8.471  1.7066  0.1881 -0.2256
10127SOL    HW230560   7.154   8.444   8.500 -0.6832 -0.8397 -0.1111
10128SOL     OW30561   7.701   4.495   3.374 -0.4827  0.1987 -0.4247
10128SOL    HW130562   7.607   4.466   3.356  0.2532 -3.8058  1.2150
10128SOL    HW230563   7.746   4.516   3.287 -1.8205 -1.5211 -1.6088
10129SOL     OW30564   0.007   3.182   0.590  0.6470  0.0818 -0.0466
10129SOL    HW130565   0.094   3.230   0.598  0.3470  0.4854  0.9773
10129SOL    HW230566  -0.058   3.240   0.542  0.6798  0.1547 -0.0038
10130SOL     OW30567   0.148   4.798   1.015  0.3847  0.3704 -0.2719
10130SOL    HW130568   0.053   4.809   1.042 -0.7277 -2.0138 -2.6858
10130SOL    HW230569   0.196   4.741   1.083 -0.5042 -0.1448 -0.0661
10131SOL     OW30570   5.731   7.856   4.612  0.3964  0.3389 -0.5153
10131SOL    HW130571   5.822   7.898   4.604  0.9188 -0.5454  0.3817
10131SOL    HW230572   5.742   7.756   4.617 -0.7164  0.1566 -1.4184
10132SOL     OW30573   5.597   5.419   6.688 -0.2545 -0.0310  0.0644
10132SOL    HW130574   5.514   5.422   6.632 -0.1359  1.0181 -0.0635
10132SOL    HW230575   5.620   5.323   6.708 -0.5828 -0.3985 -1.2367
10133SOL     OW30576   3.099   0.470   4.705  0.3873  0.3110  0.3492
10133SOL    HW130577   3.172   0.539   4.710 -0.5341  1.3409  0.0952
10133SOL    HW230578   3.046   0.483   4.622 -0.6096  0.1354  0.9351
10134SOL     OW30579   1.302   6.009   3.193 -0.6775  0.1793  0.3892
10134SOL    HW130580   1.256   6.098   3.200  0.0082  0.7494 -1.7624
10134SOL    HW230581   1.290   5.972   3.101  0.5840 -1.1138  0.7116
10135SOL     OW30582   7.235   6.065   6.225  0.5018 -0.1247  0.6688
10135SOL    HW130583   7.235   5.974   6.267  0.7827 -0.6524 -0.4387
10135SOL    HW230584   7.162   6.120   6.267  0.5717 -0.7199  1.6147
10136SOL     OW30585   3.593   2.768   2.395 -0.4333  0.3337  0.5581
10136SOL    HW130586   3.564   2.707   2.469 -3.3854  0.4194 -0.4054
10136SOL    HW230587   3.692   2.759   2.381 -0.5512 -3.3796  1.1903
10137SOL     OW30588   7.995   5.460   6.435  0.7445 -0.3555  0.0553
10137SOL    HW130589   8.007   5.540   6.375  0.6458  0.3266  0.9282
10137SOL    HW230590   8.061   5.389   6.408 -0.0428 -0.5246 -1.5844
10138SOL     OW30591   5.242   2.083   5.094  0.9846 -0.0552  0.1077
10138SOL    HW130592   5.256   1.986   5.117 -2.9246 -1.5603 -2.5974
10138SOL    HW230593   5.280   2.101   5.003  0.1005  0.3714 -0.1919
10139SOL     OW30594   6.016   3.925   2.652  0.8436 -0.6442  0.3988
10139SOL    HW130595   6.071   3.884   2.725  0.4881 -0.4916  0.7578
10139SOL    HW230596   5.941   3.976   2.692 -0.3696 -1.9613 -0.1017
10140SOL     OW30597   5.339   5.038   7.231  0.8905  0.4112 -0.3060
10140SOL    HW130598   5.431   5.033   7.192  0.7430 -0.8291 -0.5180
10140SOL    HW230599   5.344   5.019   7.329  1.1896  3.0219  0.2710
10141SOL     OW30600   4.601   8.632   8.685 -0.1506 -0.2572  0.4102
10141SOL    HW130601   4.597   8.655   8.588  0.2105 -1.3204  0.1205
10141SOL    HW230602   4.548   8.698   8.738 -1.1838 -0.2341 -0.6165
10142SOL     OW30603   4.934   1.833   8.429  0.1464 -0.2733 -0.3970
10142SOL    HW130604   4.945   1.887   8.512 -1.2202  1.2047 -1.1184
10142SOL    HW230605   4.977   1.744   8.441  2.9048  1.1019  0.6914
10143SOL     OW30606   7.976   8.509   0.767 -0.3025  0.1976 -0.3737
10143SOL    HW130607   8.073   8.528   0.750 -0.1079  0.9468  1.3311
10143SOL    HW230608   7.933   8.478   0.683  0.9024  2.0285 -1.7465
10144SOL     OW30609   4.133   6.619   6.109 -0.4587 -0.2118  0.6037
10144SOL    HW130610   4.217   6.576   6.076 -2.1337 -1.9302 -1.8888
10144SOL    HW230611   4.068   6.548   6.136 -2.0366  0.8769 -0.1330
10145SOL     OW30612   0.220   0.779   3.560 -0.2565  0.4734  0.0050
10145SOL    HW130613   0.303   0.832   3.580  0.0486  0.1465 -0.3635
10145SOL    HW230614   0.195   0.793   3.464 -1.0950  1.2001  0.3093
10146SOL     OW30615   2.278   3.172   0.500  0.2987  0.2379  0.1780
10146SOL    HW130616   2.197   3.203   0.450  1.2492  0.4641 -1.2977
10146SOL    HW230617   2.325   3.251   0.541 -0.0384  0.1501  0.7302
10147SOL     OW30618   4.058   1.927   5.125 -0.3364 -0.0452  0.0386
10147SOL    HW130619   4.103   2.016   5.118 -0.5102  0.0991  0.7319
10147SOL    HW230620   4.099   1.864   5.059 -1.1933  0.9571 -1.5368
10148SOL     OW30621   0.306   3.643   0.211  0.3448  0.2989  0.2399
10148SOL    HW130622   0.352   3.627   0.124  0.8817 -1.8998  0.8541
10148SOL    HW230623   0.373   3.636   0.286 -0.3965  0.3714  0.9286
10149SOL     OW30624   6.717   8.820   4.482  0.0405  0.3814 -0.0489
10149SOL    HW130625   6.685   8.854   4.393 -2.8307 -0.0284  0.7327
10149SOL    HW230626   6.714   8.720   4.481  1.9926  0.2895 -0.1171
10150SOL     OW30627   4.224   6.265   5.468 -0.0712 -0.3003 -0.5260
10150SOL    HW130628   4.126   6.283   5.476  0.2912  1.2333  1.2335
10150SOL    HW230629   4.243   6.171   5.494 -1.0958 -0.7506 -1.3162
10151SOL     OW30630   6.043   4.637   7.164  0.8339  1.1049  0.2662
10151SOL    HW130631   6.135   4.598   7.165  0.3724  0.0052  1.6845
10151SOL    HW230632   6.011   4.651   7.258 -0.3121  1.8135 -0.2090
10152SOL     OW30633   4.151   0.839   3.868  0.3973 -0.0396 -0.3086
10152SOL    HW130634   4.169   0.749   3.907 -0.6800 -0.3251 -0.4185
10152SOL    HW230635   4.209   0.907   3.912  1.1399 -0.7654 -0.1444
10153SOL     OW30636   8.573   7.897   2.326  0.4534  0.1882  0.0808
10153SOL    HW130637   8.655   7.888   2.383  1.2030 -0.3706 -1.0435
10153SOL    HW230638   8.594   7.867   2.233 -0.8175  0.7977 -0.4270
10154SOL     OW30639   4.733   5.752   4.864  0.1026 -0.1566  0.0032
10154SOL    HW130640   4.776   5.694   4.795 -1.1023  0.2499 -1.1343
10154SOL    HW230641   4.636   5.728   4.872 -0.7361  2.4530 -1.3930
10155SOL     OW30642   0.250   2.922   0.405 -0.4318 -0.4868 -0.0266
10155SOL    HW130643   0.224   3.014   0.432  0.7801 -0.3019  0.5924
10155SOL    HW230644   0.189   2.889   0.332 -1.3610  0.4842  0.2983
10156SOL     OW30645   6.302   8.054   3.791  0.1900 -0.7413  0.3405
10156SOL    HW130646   6.234   8.043   3.719  1.1217 -1.4037 -0.4685
10156SOL    HW230647   6.275   8.001   3.871 -1.4812  0.9835  0.9816
10157SOL     OW30648   7.958   7.053   8.774  0.2949  0.2503  0.1682
10157SOL    HW130649   8.037   7.099   8.732 -0.3980 -0.8838 -2.6139
10157SOL    HW230650   7.874   7.093   8.738 -0.3826 -0.1598  1.2646
10158SOL     OW30651   5.570   8.689   7.896  0.2531 -0.1629 -0.7604
10158SOL    HW130652   5.631   8.749   7.844  1.0783 -0.0002  0.3437
10158SOL    HW230653   5.479   8.728   7.899  0.8398  1.1853  0.1594
10159SOL     OW30654   3.533   5.282   7.859  0.1431 -0.1141  0.3050
10159SOL    HW130655   3.593   5.256   7.935  0.6942 -0.8897 -0.3765
10159SOL    HW230656   3.564   5.237   7.776 -0.8048  0.2723 -0.2690
10160SOL     OW30657   3.630   8.767   2.081 -0.2387 -0.2008 -0.1212
10160SOL    HW130658   3.610   8.669   2.073  0.1622 -0.4321  1.4366
10160SOL    HW230659   3.724   8.780   2.112 -0.9445  0.6052  1.7905
10161SOL     OW30660   6.004   0.281   2.479 -0.3244  0.1977  0.0488
10161SOL    HW130661   5.982   0.252   2.385  0.2526  0.9708 -0.3378
10161SOL    HW230662   5.956   0.222   2.544  1.1162 -1.9213 -0.6851
10162SOL     OW30663   4.859   7.968   2.883  0.3592  0.1854  0.5046
10162SOL    HW130664   4.805   8.026   2.942  1.3145 -0.8045  2.4416
10162SOL    HW230665   4.800   7.902   2.836 -0.5876  1.9552 -0.8989
10163SOL     OW30666   4.256   6.542   3.878 -0.4001  0.1456  0.0321
10163SOL    HW130667   4.242   6.622   3.820 -1.5461  0.8869  1.2562
10163SOL    HW230668   4.194   6.468   3.849 -1.2590  0.6515  0.5172
10164SOL     OW30669   7.739   3.574   1.956  0.0772 -0.7000  0.0923
10164SOL    HW130670   7.697   3.559   1.867 -0.6332 -1.3332  0.5219
10164SOL    HW230671   7.736   3.489   2.009  0.3601 -0.2972  0.7660
10165SOL     OW30672   2.339   0.001   0.606 -0.6602  0.1732  0.1264
10165SOL    HW130673   2.393  -0.072   0.562 -1.4777 -0.3447 -0.0348
10165SOL    HW230674   2.271  -0.040   0.667 -1.8286  0.7435 -0.7621
10166SOL     OW30675   5.881   2.982   0.187  0.3921 -0.2542 -0.4556
10166SOL    HW130676   5.795   2.989   0.136  0.1997  0.1222 -0.0743
10166SOL    HW230677   5.927   2.897   0.161 -0.4713 -0.8545 -0.0762
10167SOL     OW30678   4.811   7.212   2.926 -0.5871  0.0198 -0.1908
10167SOL    HW130679   4.775   7.267   3.001 -3.4480  0.6213 -1.8865
10167SOL    HW230680   4.909   7.194   2.942 -0.0859  3.5426  1.5809
10168SOL     OW30681   3.450   7.043   2.312 -0.4044 -0.2863  0.0620
10168SOL    HW130682   3.539   7.078   2.285 -1.0333  1.7847  0.4373
10168SOL    HW230683   3.394   7.028   2.231 -0.3332  0.2531 -0.0941
10169SOL     OW30684   4.605   0.591   2.334  0.2072  0.0147 -0.4907
10169SOL    HW130685   4.645   0.682   2.323 -1.2144  0.5990 -1.0451
10169SOL    HW230686   4.623   0.558   2.426  1.3712  0.5331 -0.5117
10170SOL     OW30687   6.594   8.003   1.026 -0.4138 -0.2183  0.0765
10170SOL    HW130688   6.549   7.949   1.097 -2.3783 -0.7228 -1.4520
10170SOL    HW230689   6.589   8.100   1.049 -0.2939 -0.4232  1.0026
10171SOL     OW30690   5.610   6.810   3.051  0.0597 -0.3246  0.0608
10171SOL    HW130691   5.612   6.739   3.121  0.3644 -0.4984 -0.1204
10171SOL    HW230692   5.674   6.883   3.075 -0.9496  0.3735  0.7374
10172SOL     OW30693   3.761   3.745   3.171  0.3523 -0.5552 -0.2551
10172SOL    HW130694   3.766   3.810   3.095  0.6054 -2.4005 -1.9115
10172SOL    HW230695   3.665   3.725   3.192  0.2760  0.2774  0.2232
10173SOL     OW30696   1.909   7.282   2.322 -0.1594 -0.1291 -0.9291
10173SOL    HW130697   1.862   7.199   2.292  1.5105 -1.3419 -0.3255
10173SOL    HW230698   1.876   7.310   2.412 -0.1135 -0.6614 -0.7477
10174SOL     OW30699   0.268   8.451   8.131  0.7751 -0.1416  0.6519
10174SOL    HW130700   0.265   8.471   8.033  2.3544  0.9161  0.7811
10174SOL    HW230701   0.175   8.441   8.166  0.1947 -1.1875 -1.0615
10175SOL     OW30702   8.368   0.965   3.488  0.0970 -0.1495  0.3241
10175SOL    HW130703   8.269   0.954   3.478  0.1937 -1.1781  0.3964
10175SOL    HW230704   8.403   0.897   3.552  1.3190 -2.0661 -2.2205
10176SOL     OW30705   6.009   2.027   5.260  0.5186 -0.1031  0.0505
10176SOL    HW130706   6.010   2.108   5.202 -1.7632  1.0461  1.4415
10176SOL    HW230707   6.016   2.055   5.356  0.8618 -1.6554  0.5011
10177SOL     OW30708   5.613   1.572   7.871 -0.4042 -0.7435 -0.4184
10177SOL    HW130709   5.592   1.476   7.889  2.0607 -0.9978  1.8939
10177SOL    HW230710   5.653   1.581   7.780 -1.1009 -1.8153 -0.8540
10178SOL     OW30711   0.463   3.196   7.304 -0.4731 -0.1835 -0.3936
10178SOL    HW130712   0.477   3.285   7.347 -2.3327 -0.6911  1.3690
10178SOL    HW230713   0.551   3.162   7.270  0.8111  1.0320  1.4989
10179SOL     OW30714   1.147   6.458   2.024  0.0975  0.3540 -0.0265
10179SOL    HW130715   1.210   6.473   1.947  0.6647  0.8505  0.5208
10179SOL    HW230716   1.161   6.366   2.061 -1.2584 -0.4771 -1.4731
10180SOL     OW30717   0.526   7.688   7.125  0.5482  0.0552  0.3210
10180SOL    HW130718   0.595   7.616   7.124  1.9676  1.3621  0.8986
10180SOL    HW230719   0.458   7.670   7.053  1.9309 -0.8321 -0.8098
10181SOL     OW30720   4.620   0.158   2.994  0.1008 -0.5811  0.0184
10181SOL    HW130721   4.605   0.214   3.076 -3.0974  0.9515 -1.4585
10181SOL    HW230722   4.715   0.169   2.964  1.5563 -1.5680  3.6355
10182SOL     OW30723   7.991   2.156   4.208  0.4517 -0.3317 -0.7071
10182SOL    HW130724   8.009   2.062   4.237  1.6238 -0.2854 -1.2503
10182SOL    HW230725   7.993   2.216   4.287 -0.6275 -0.7881 -0.3058
10183SOL     OW30726   0.918   0.048   0.670  0.4183  0.3596 -0.1665
10183SOL    HW130727   0.987   0.049   0.598  0.2332  0.2208 -0.3455
10183SOL    HW230728   0.867   0.135   0.669 -0.9769 -0.4350 -1.5531
10184SOL     OW30729   4.307   3.018   7.431  0.2630 -0.4853 -0.6992
10184SOL    HW130730   4.285   3.112   7.455 -0.8664 -0.6558 -1.0025
10184SOL    HW230731   4.240   2.984   7.364  2.1188 -0.6755 -2.5660
10185SOL     OW30732   3.278   7.312   5.523 -0.5722  0.1579  0.5221
10185SOL    HW130733   3.286   7.249   5.446  1.5500 -0.6333  1.3094
10185SOL    HW230734   3.182   7.320   5.550 -1.2193 -0.4100 -1.4640
10186SOL     OW30735   6.684   5.594   5.409  0.0241 -0.2715  0.3510
10186SOL    HW130736   6.730   5.611   5.497 -2.1724 -0.4523  1.6113
10186SOL    HW230737   6.745   5.619   5.334  1.9166  0.0611  1.9188
10187SOL     OW30738   8.664   4.257   7.752  0.1490  0.1891 -0.2852
10187SOL    HW130739   8.680   4.233   7.657  1.4551 -0.2157  0.0233
10187SOL    HW230740   8.750   4.253   7.803 -0.8280 -1.5544  1.3457
10188SOL     OW30741   0.024   5.150   8.444  0.3695  0.6865  0.0086
10188SOL    HW130742   0.007   5.104   8.356 -3.1027  0.9906  0.3724
10188SOL    HW230743   0.022   5.082   8.517  0.4565  0.7747  0.0925
10189SOL     OW30744   0.129   4.939   1.713  0.1409  0.0422 -0.0428
10189SOL    HW130745   0.212   4.993   1.724  0.0304 -0.2093  2.5607
10189SOL    HW230746   0.091   4.955   1.621  2.3610  1.0868 -0.8545
10190SOL     OW30747   2.580   5.812   4.144  0.0520 -0.0715 -0.4952
10190SOL    HW130748   2.580   5.847   4.050  0.3449 -0.5545 -0.6730
10190SOL    HW230749   2.486   5.793   4.172 -0.1069  0.7751 -0.4270
10191SOL     OW30750   5.620   6.845   1.910 -0.1160 -0.3072 -0.4175
10191SOL    HW130751   5.564   6.791   1.974  1.7012 -1.1376  0.5628
10191SOL    HW230752   5.612   6.942   1.933  0.8269 -0.6166  1.4091
10192SOL     OW30753   6.469   7.497   3.578 -0.7996  0.2573 -0.1851
10192SOL    HW130754   6.387   7.489   3.521 -1.5619  2.5030  0.5144
10192SOL    HW230755   6.547   7.524   3.521 -1.5837  2.6176 -0.2399
10193SOL     OW30756   4.535   2.555   5.627  0.4923 -0.1331 -0.3150
10193SOL    HW130757   4.590   2.490   5.575  0.5346  0.4445 -1.0056
10193SOL    HW230758   4.555   2.648   5.597 -1.2139  0.0695 -0.9560
10194SOL     OW30759   6.480   2.923   8.317 -0.2312 -0.1343 -0.1357
10194SOL    HW130760   6.388   2.889   8.339  0.5906 -2.5529 -0.1980
10194SOL    HW230761   6.503   2.999   8.379 -1.3728 -1.0197  1.4324
10195SOL     OW30762   1.282   2.872   6.361  0.5677  0.0889 -0.0280
10195SOL    HW130763   1.291   2.822   6.448 -2.0474 -1.8832 -0.7606
10195SOL    HW230764   1.307   2.811   6.286 -0.4417  0.6446 -0.8313
10196SOL     OW30765   2.396   1.914   0.669 -0.3512  0.8176  0.0407
10196SOL    HW130766   2.297   1.925   0.677 -0.6027  1.0577 -2.5460
10196SOL    HW230767   2.425   1.937   0.576  1.7366 -2.0156 -0.1463
10197SOL     OW30768   6.149   5.406   8.548 -0.2586  0.4950  0.3136
10197SOL    HW130769   6.224   5.380   8.610 -0.7099  2.4216  1.7652
10197SOL    HW230770   6.176   5.487   8.495 -1.2452  1.1358  0.7658
10198SOL     OW30771   0.573   5.420   2.084 -0.0197  0.5438 -0.1099
10198SOL    HW130772   0.593   5.378   2.172  0.3929  1.9196  0.4724
10198SOL    HW230773   0.497   5.483   2.093 -0.4866  0.1169 -0.9231
10199SOL     OW30774   1.258   6.642   1.651 -0.2179 -0.5463 -0.5169
10199SOL    HW130775   1.202   6.659   1.570  1.1380  1.0464 -1.1865
10199SOL    HW230776   1.225   6.561   1.698 -2.5699 -0.1151 -1.2957
10200SOL     OW30777   4.621   1.208   8.727  0.3570  0.3082  0.2921
10200SOL    HW130778   4.649   1.224   8.822  0.5464  1.2574  0.0850
10200SOL    HW230779   4.633   1.292   8.674 -2.0045  0.4939 -0.0465
10201SOL     OW30780   2.604   7.583   5.399  0.2123  0.0473 -0.7203
10201SOL    HW130781   2.687   7.637   5.414 -0.0685 -0.3068  3.0905
10201SOL    HW230782   2.524   7.642   5.402  0.1065 -0.1181  0.2552
10202SOL     OW30783   4.423   2.361   1.276  0.2024  0.2631 -0.1152
10202SOL    HW130784   4.381   2.409   1.353  3.3137  1.5965  0.9049
10202SOL    HW230785   4.430   2.263   1.298 -2.6182 -0.0929 -0.5265
10203SOL     OW30786   2.902   3.332   1.645 -0.4194  0.0274 -0.1959
10203SOL    HW130787   2.956   3.393   1.588 -0.4185  0.2035 -0.0086
10203SOL    HW230788   2.861   3.260   1.588 -0.0311 -0.0784 -0.3430
10204SOL     OW30789   4.215   5.660   1.903 -0.2306  0.2041 -0.1792
10204SOL    HW130790   4.260   5.603   1.835  1.0162  1.1352 -0.1739
10204SOL    HW230791   4.284   5.713   1.953 -1.0412 -0.8989  2.2414
10205SOL     OW30792   2.638   0.778   2.126  0.5145 -0.0040 -0.2091
10205SOL    HW130793   2.548   0.788   2.083  0.2759  0.6832  0.4396
10205SOL    HW230794   2.671   0.685   2.112 -1.3065 -0.9820  1.4567
10206SOL     OW30795   3.855   0.852   8.365  0.5620  0.5276 -0.0524
10206SOL    HW130796   3.923   0.918   8.397 -0.2555  0.8355  1.1029
10206SOL    HW230797   3.772   0.900   8.339 -0.3566 -0.0676  1.6251
10207SOL     OW30798   0.248   4.942   4.491 -0.2720  0.4121 -0.1238
10207SOL    HW130799   0.245   4.985   4.400  1.2461 -0.4561 -0.6177
10207SOL    HW230800   0.337   4.958   4.533 -0.0484 -1.3089  0.1266
10208SOL     OW30801   4.857   6.893   6.525  0.0672  0.4985  0.4665
10208SOL    HW130802   4.936   6.834   6.542  0.0840  0.2449 -0.4726
10208SOL    HW230803   4.871   6.944   6.440 -1.0225  0.0400 -0.0022
10209SOL     OW30804   8.039   4.905   5.215  0.1120 -0.3076 -0.3028
10209SOL    HW130805   8.087   4.976   5.164 -0.4313 -0.7488 -1.4423
10209SOL    HW230806   8.008   4.833   5.153  0.5840 -1.5247  0.8168
10210SOL     OW30807   1.645   0.798   8.416 -0.1217 -0.3238  0.3404
10210SOL    HW130808   1.639   0.858   8.496 -0.7852  0.9964 -0.6550
10210SOL    HW230809   1.631   0.703   8.444 -1.7113  0.2372  1.6275
10211SOL     OW30810   1.267   8.794   6.026 -0.2390 -0.4325  0.0486
10211SOL    HW130811   1.351   8.844   6.006 -0.5805  0.9521  1.8057
10211SOL    HW230812   1.201   8.808   5.952 -0.1938  1.4809  0.3288
10212SOL     OW30813   5.319   3.267   3.704 -0.2067 -0.4532  0.0861
10212SOL    HW130814   5.381   3.199   3.744 -0.4334  0.4828  2.1934
10212SOL    HW230815   5.225   3.249   3.735 -0.5238 -0.1012 -0.6325
10213SOL     OW30816   6.099   1.155   7.036  0.8946 -0.8295  0.1675
10213SOL    HW130817   6.112   1.069   7.086 -0.6326 -2.0589 -1.4698
10213SOL    HW230818   6.183   1.177   6.987  0.8774 -2.1188 -0.4748
10214SOL     OW30819   1.734   1.876   2.745 -0.0806  0.4682 -0.1626
10214SOL    HW130820   1.788   1.823   2.680  0.2153 -0.8000  1.0718
10214SOL    HW230821   1.728   1.971   2.714  0.0434 -0.0907 -2.0188
10215SOL     OW30822   5.259   7.756   6.815 -0.3725  0.4744  0.2576
10215SOL    HW130823   5.205   7.769   6.899  1.2768  2.3535  1.1166
10215SOL    HW230824   5.203   7.777   6.735 -0.9960  2.2732  1.1212
10216SOL     OW30825   8.156   3.111   0.529  0.4138  0.1729  0.1778
10216SOL    HW130826   8.162   3.209   0.548  0.8468 -0.3053  2.7994
10216SOL    HW230827   8.066   3.077   0.558 -0.2605 -0.0298 -1.9462
10217SOL     OW30828   5.260   3.820   1.481  0.1737  0.0932 -0.4674
10217SOL    HW130829   5.285   3.736   1.433 -0.2793  0.5627 -1.5571
10217SOL    HW230830   5.284   3.812   1.577 -0.1024 -1.3858 -0.4996
10218SOL     OW30831   3.795   5.469   7.697  0.3399 -0.6639  0.3184
10218SOL    HW130832   3.723   5.537   7.683  0.3718 -1.0096 -1.8151
10218SOL    HW230833   3.822   5.430   7.609  2.2882 -1.4391  1.1929
10219SOL     OW30834   0.359   4.390   5.887 -0.7413  0.6981 -0.4830
10219SOL    HW130835   0.302   4.320   5.843 -0.2973 -0.0147  0.0396
10219SOL    HW230836   0.308   4.475   5.896 -1.5623  0.2084 -0.4434
10220SOL     OW30837   0.683   2.806   2.025  0.0154  0.3614 -0.4926
10220SOL    HW130838   0.743   2.743   1.975 -0.7134 -0.7921  0.0258
10220SOL    HW230839   0.693   2.788   2.123 -0.1986  1.0786 -0.3416
10221SOL     OW30840   5.526   8.722   5.171 -0.0453  0.1834  0.0043
10221SOL    HW130841   5.431   8.694   5.181  0.0087  0.7063  2.8756
10221SOL    HW230842   5.532   8.794   5.102 -1.8689  0.6185  0.2348
10222SOL     OW30843   1.654   2.310   3.025  0.3446 -0.1871 -0.2214
10222SOL    HW130844   1.629   2.299   3.121 -4.0554  1.6620 -0.9273
10222SOL    HW230845   1.727   2.378   3.017  1.2079 -0.8070  1.7910
10223SOL     OW30846   6.603   5.636   3.462 -0.5169 -0.1394  1.0812
10223SOL    HW130847   6.543   5.687   3.401  1.0170 -0.5127 -0.8599
10223SOL    HW230848   6.688   5.687   3.474  0.6130 -1.6575 -0.0413
10224SOL     OW30849   2.929   0.885   0.052 -0.0365  0.1730  0.1552
10224SOL    HW130850   2.944   0.948   0.129 -2.6141 -0.2469  1.1170
10224SOL    HW230851   2.993   0.808   0.059 -0.3305  0.0509  2.0253
10225SOL     OW30852   2.097   4.559   0.968 -0.3413  0.7032  0.3960
10225SOL    HW130853   2.093   4.460   0.982 -0.5729  0.7073  0.3640
10225SOL    HW230854   2.119   4.578   0.872  2.2490  0.6649  0.8966
10226SOL     OW30855   2.541   3.867   4.498  0.1960 -0.3653 -0.4540
10226SOL    HW130856   2.468   3.818   4.449 -0.4128  0.4243 -0.3512
10226SOL    HW230857   2.504   3.907   4.581  1.1902 -1.5713  0.6051
10227SOL     OW30858   2.543   6.571   2.892 -0.0257 -0.1164  0.2005
10227SOL    HW130859   2.520   6.646   2.953 -0.2145  2.2438 -2.5776
10227SOL    HW230860   2.570   6.607   2.802 -0.8960 -3.3899 -1.5439
10228SOL     OW30861   1.028   0.075   5.070 -0.3767 -0.6910  0.0318
10228SOL    HW130862   0.982  -0.013   5.053 -0.1368 -1.1439  1.5637
10228SOL    HW230863   0.959   0.148   5.074 -0.8574 -1.1776  1.0614
10229SOL     OW30864   8.542   1.834   4.633  0.2841  0.0936 -0.3549
10229SOL    HW130865   8.475   1.823   4.561 -1.2054 -0.9857  1.1245
10229SOL    HW230866   8.514   1.907   4.695  1.2584  0.6390 -0.5278
10230SOL     OW30867   4.065   4.568   6.369  0.3427  0.3875  0.0107
10230SOL    HW130868   4.030   4.474   6.367  0.1298  0.4176  1.4078
10230SOL    HW230869   4.163   4.566   6.388  0.2632  0.4483  0.4453
10231SOL     OW30870   6.935   5.575   5.843  0.0697  0.2780 -0.6563
10231SOL    HW130871   6.953   5.614   5.934  1.7991 -0.9596 -0.4146
10231SOL    HW230872   7.008   5.602   5.780  0.3700 -1.0838 -0.9354
10232SOL     OW30873   4.515   7.525   5.360  0.1190  0.3778 -0.2573
10232SOL    HW130874   4.585   7.595   5.365  1.2320 -0.4359 -2.6738
10232SOL    HW230875   4.436   7.552   5.416  1.8269  1.8834  1.5497
10233SOL     OW30876   2.187   3.317   3.708 -0.0470 -0.1691 -0.1279
10233SOL    HW130877   2.100   3.323   3.758 -0.2831  1.0465 -0.6524
10233SOL    HW230878   2.182   3.241   3.643 -0.3055 -0.7867  0.5893
10234SOL     OW30879   6.353   8.682   4.038 -0.1988  0.5044 -0.5095
10234SOL    HW130880   6.403   8.659   3.954  1.4309 -0.4055  0.6520
10234SOL    HW230881   6.328   8.597   4.085  0.0939  1.0175  0.5839
10235SOL     OW30882   8.073   6.651   5.813  0.6712 -0.0401  0.2599
10235SOL    HW130883   8.145   6.709   5.775 -0.6198  2.3750  1.3073
10235SOL    HW230884   8.004   6.633   5.743  1.5373 -1.1615 -0.3355
10236SOL     OW30885   2.377   1.119   5.259  0.3919 -0.0556  0.2224
10236SOL    HW130886   2.279   1.098   5.271 -0.0643 -0.2791 -3.0810
10236SOL    HW230887   2.397   1.206   5.304 -2.3243  2.0000 -2.1084
10237SOL     OW30888   2.243   0.593   2.994  0.0264  0.6872  0.4660
10237SOL    HW130889   2.213   0.633   2.908 -0.4920 -0.2734  0.1913
10237SOL    HW230890   2.240   0.493   2.988 -1.6694  0.5856  2.1520
10238SOL     OW30891   3.404   5.084   8.803 -0.6379  0.7251 -0.2232
10238SOL    HW130892   3.462   5.141   8.746 -0.7733 -0.0045 -1.1147
10238SOL    HW230893   3.449   4.997   8.821 -0.8095  0.7532  0.3779
10239SOL     OW30894   4.921   2.774   0.245  0.7958  0.2202 -0.2811
10239SOL    HW130895   4.901   2.691   0.192 -0.4131 -0.3337  0.9857
10239SOL    HW230896   4.906   2.756   0.342 -1.3997  2.4153 -0.1104
10240SOL     OW30897   8.085   3.496   5.184  1.0632  0.8568 -0.1837
10240SOL    HW130898   8.037   3.581   5.163  1.1275  1.0485  0.4183
10240SOL    HW230899   8.136   3.507   5.270 -1.0512 -0.6003  1.3768
10241SOL     OW30900   0.380   3.067   2.719  0.6077 -0.4304  0.4301
10241SOL    HW130901   0.445   3.013   2.665  0.3133  0.5669 -0.9735
10241SOL    HW230902   0.288   3.030   2.708  0.5683 -0.3106  0.3476
10242SOL     OW30903   4.093   2.855   6.170  0.7851 -0.0888 -0.7054
10242SOL    HW130904   4.059   2.765   6.199  1.9878 -0.3846 -0.1481
10242SOL    HW230905   4.173   2.843   6.112  1.1888  0.6282 -0.3125
10243SOL     OW30906   8.684   4.774   6.544  0.1958  0.5796 -0.3167
10243SOL    HW130907   8.601   4.775   6.599 -0.3973  2.3869 -1.1425
10243SOL    HW230908   8.681   4.698   6.480  0.4076 -0.9034  1.3614
10244SOL     OW30909   7.174   0.477   0.323  0.4424  1.0399 -0.1306
10244SOL    HW130910   7.121   0.459   0.240 -0.1923 -0.6710  0.6027
10244SOL    HW230911   7.130   0.551   0.374 -0.0182  1.0929 -0.5926
10245SOL     OW30912   1.823   0.110   1.485 -0.0703 -0.4394 -0.0006
10245SOL    HW130913   1.866   0.180   1.429 -0.6185  0.2903  0.4815
10245SOL    HW230914   1.817   0.141   1.580 -1.9701 -0.3564 -0.1055
10246SOL     OW30915   1.495   2.380   8.348 -0.1279  0.1186 -0.2873
10246SOL    HW130916   1.590   2.364   8.323 -0.3377 -1.2860 -0.2357
10246SOL    HW230917   1.489   2.457   8.412  0.9528  0.2782 -0.3724
10247SOL     OW30918   7.103   5.595   6.446 -0.2939 -0.0244  1.2143
10247SOL    HW130919   7.169   5.634   6.510 -0.5197 -1.0931  2.1306
10247SOL    HW230920   7.084   5.500   6.471  0.2209 -0.7490 -0.9354
10248SOL     OW30921   7.837   4.346   6.522  0.2861  0.0700  0.0022
10248SOL    HW130922   7.781   4.330   6.440  0.7353  1.2796 -0.5637
10248SOL    HW230923   7.910   4.411   6.501  0.7849 -0.0653  1.2135
10249SOL     OW30924   0.852   6.746   4.612  0.0847  0.0653 -0.3977
10249SOL    HW130925   0.781   6.697   4.664  1.2004  0.7594  1.9419
10249SOL    HW230926   0.937   6.747   4.665  1.2503  1.0861 -2.1774
10250SOL     OW30927   6.551   0.375   5.109  0.2878  0.0658 -0.1526
10250SOL    HW130928   6.609   0.402   5.032  0.5540 -3.4387 -1.3206
10250SOL    HW230929   6.595   0.402   5.195  1.9910  0.4625 -1.1108
10251SOL     OW30930   2.561   3.303   7.684  0.0119  0.4412  0.0535
10251SOL    HW130931   2.631   3.252   7.633  0.0873 -0.9492  1.4678
10251SOL    HW230932   2.603   3.343   7.766 -0.9562 -0.9913  1.2865
10252SOL     OW30933   4.488   4.046   2.590 -0.4380 -0.0924 -0.0918
10252SOL    HW130934   4.460   4.024   2.684  1.2009 -3.5055 -0.2478
10252SOL    HW230935   4.468   3.968   2.530 -1.3433  1.9603 -2.6455
10253SOL     OW30936   1.163   2.927   0.325 -0.3431 -0.1867  0.0597
10253SOL    HW130937   1.069   2.921   0.359 -0.4253  0.4799 -0.0368
10253SOL    HW230938   1.202   2.835   0.321 -0.8613 -0.4371  0.4565
10254SOL     OW30939   6.035   7.262   7.813  0.1285  0.0230  0.4015
10254SOL    HW130940   6.125   7.307   7.807 -0.1264  0.5435  0.3963
10254SOL    HW230941   6.020   7.230   7.906 -0.1939  1.0469  0.7181
10255SOL     OW30942   1.679   7.688   1.034  0.1343 -0.3962 -0.7179
10255SOL    HW130943   1.607   7.629   1.070  0.4038 -0.3937 -0.1644
10255SOL    HW230944   1.685   7.771   1.091 -0.5990  0.4233 -1.7953
10256SOL     OW30945   4.662   4.147   1.767  0.0467  0.0085 -0.2520
10256SOL    HW130946   4.639   4.244   1.763  0.3925  0.0859 -0.4221
10256SOL    HW230947   4.609   4.097   1.699  0.2779  0.1658 -0.5518
10257SOL     OW30948   1.076   1.373   5.874 -0.2297 -0.6787 -0.3904
10257SOL    HW130949   1.117   1.369   5.783 -1.6052 -0.9864 -1.0229
10257SOL    HW230950   0.976   1.368   5.866 -0.3716 -0.8343  1.1428
10258SOL     OW30951   2.126   1.282   5.233 -0.3197  0.0026 -0.1598
10258SOL    HW130952   2.201   1.304   5.170  0.7450 -1.0671  0.6922
10258SOL    HW230953   2.160   1.282   5.327 -1.2220 -1.1782  0.1878
10259SOL     OW30954   2.728   6.565   1.519  0.4435 -0.4335  0.2856
10259SOL    HW130955   2.642   6.519   1.496  0.3875  0.0507 -0.4988
10259SOL    HW230956   2.805   6.504   1.499  0.2786 -1.0178  1.3613
10260SOL     OW30957   0.699   5.012   8.635  0.7004  0.3087  0.0824
10260SOL    HW130958   0.700   5.089   8.698  2.1861  1.7804 -1.6195
10260SOL    HW230959   0.639   5.033   8.558  1.1234 -0.2129 -0.3970
10261SOL     OW30960   4.598   1.273   2.792  0.5877  0.1593  0.4517
10261SOL    HW130961   4.655   1.332   2.849 -0.1981  1.9293 -0.5259
10261SOL    HW230962   4.503   1.277   2.823  0.1976  0.9408 -0.7756
10262SOL     OW30963   8.813   7.335   3.929  0.0480 -0.6496  0.6752
10262SOL    HW130964   8.814   7.418   3.986 -2.3820  1.3978 -1.9683
10262SOL    HW230965   8.722   7.325   3.888 -0.0466 -5.2110  1.4953
10263SOL     OW30966   5.256   6.443   8.160 -0.3129 -0.3262 -0.2219
10263SOL    HW130967   5.283   6.477   8.250 -0.6130 -0.7245  0.0247
10263SOL    HW230968   5.253   6.519   8.095 -2.2076  0.3722  0.6042
10264SOL     OW30969   3.547   1.263   0.444  0.1353 -0.8839 -0.0629
10264SOL    HW130970   3.627   1.306   0.486 -0.7876  0.2517  0.6093
10264SOL    HW230971   3.571   1.172   0.410  1.8447 -0.3436 -0.3899
10265SOL     OW30972   0.849   8.184   8.128 -0.3359 -0.1533  0.3699
10265SOL    HW130973   0.851   8.267   8.184 -0.8525 -0.3927  0.7510
10265SOL    HW230974   0.884   8.107   8.181  0.6022 -0.0978 -0.1424
10266SOL     OW30975   8.452   3.528   2.374  0.0011 -0.6708  0.1192
10266SOL    HW130976   8.526   3.493   2.317 -0.5083 -0.7146 -0.5320
10266SOL    HW230977   8.460   3.491   2.467  0.9662 -0.4241  0.1417
10267SOL     OW30978   0.072   2.986   5.986 -0.9554 -0.7572  1.0151
10267SOL    HW130979   0.132   3.065   5.974 -2.0308 -0.1450 -0.7921
10267SOL    HW230980   0.064   2.964   6.083  1.6002 -0.4408  1.3608
10268SOL     OW30981   8.759   3.820   5.553  0.0344  0.1399 -0.2468
10268SOL    HW130982   8.674   3.767   5.549 -0.3118  0.7914 -2.5045
10268SOL    HW230983   8.746   3.900   5.612 -0.8810  0.1542 -0.4573
10269SOL     OW30984   4.865   0.483   2.413 -0.4149 -0.2298 -0.1166
10269SOL    HW130985   4.877   0.550   2.340 -0.9659  0.0673  0.0580
10269SOL    HW230986   4.936   0.414   2.407 -0.5062 -0.2539 -0.9864
10270SOL     OW30987   7.059   7.965   6.534  0.5019  0.1109  0.2896
10270SOL    HW130988   6.992   7.905   6.578 -0.2664  0.7450  0.0080
10270SOL    HW230989   7.098   7.919   6.454 -0.2903  0.0947 -0.0935
10271SOL     OW30990   8.217   3.707   2.129  0.0815 -0.3240 -0.7243
10271SOL    HW130991   8.172   3.784   2.175  1.3180 -0.8643  1.5359
10271SOL    HW230992   8.275   3.743   2.056 -0.6759  0.7271 -0.8443
10272SOL     OW30993   0.220   8.074   6.015 -0.0187 -0.3417  0.0346
10272SOL    HW130994   0.298   8.057   5.955  0.5142 -0.3882  0.7184
10272SOL    HW230995   0.253   8.103   6.105 -0.6855 -2.3362  1.0086
10273SOL     OW30996   8.417   2.422   0.584  0.8961 -0.3402  0.1560
10273SOL    HW130997   8.371   2.497   0.632  1.2701 -0.9313  1.4838
10273SOL    HW230998   8.356   2.387   0.513  0.2822  0.5071  0.2433
10274SOL     OW30999   1.852   1.750   2.548 -0.4117  0.6176  0.1752
10274SOL    HW131000   1.903   1.664   2.556 -0.0095  0.6885 -1.2380
10274SOL    HW231001   1.771   1.735   2.491  0.2830  1.3944 -1.0756
10275SOL     OW31002   5.678   0.997   6.564  0.5714 -0.0418  0.2024
10275SOL    HW131003   5.644   1.054   6.489  2.6643  0.4841 -0.4178
10275SOL    HW231004   5.675   1.049   6.649  1.6890  0.7420 -0.2125
10276SOL     OW31005   8.547   3.679   5.494  0.0594 -0.3821 -0.2557
10276SOL    HW131006   8.495   3.763   5.510  2.0359  1.0721 -1.0780
10276SOL    HW231007   8.555   3.628   5.579 -3.1075 -0.9741 -0.1927
10277SOL     OW31008   2.424   1.952   2.791 -0.2238  0.4872 -0.2671
10277SOL    HW131009   2.364   2.020   2.750 -2.2358 -0.8899  0.2255
10277SOL    HW231010   2.411   1.864   2.744  0.6320 -0.0815  0.5372
10278SOL     OW31011   5.872   0.179   1.843  0.8259 -0.3105  0.5385
10278SOL    HW131012   5.921   0.126   1.773  0.0699 -0.3116  0.0022
10278SOL    HW231013   5.917   0.267   1.854 -0.1637  0.5050 -1.3885
10279SOL     OW31014   1.775   0.279   8.568  0.3692 -0.8073  0.2819
10279SOL    HW131015   1.853   0.277   8.630  1.4361 -1.7983 -1.0232
10279SOL    HW231016   1.807   0.295   8.474 -1.1147 -0.0936 -0.1316
10280SOL     OW31017   8.101   6.868   3.497  0.0758  1.1525 -0.1398
10280SOL    HW131018   8.192   6.871   3.457  0.0736  0.7314 -0.1765
10280SOL    HW231019   8.045   6.941   3.459  0.0436  0.6991 -0.9722
10281SOL     OW31020   5.345   2.208   0.314  0.2559 -0.1055  0.5685
10281SOL    HW131021   5.249   2.211   0.286  0.0978  0.3668  1.1317
10281SOL    HW231022   5.354   2.247   0.406  0.9073 -0.6663  0.7514
10282SOL     OW31023   2.504   8.336   6.284  0.4117 -0.1743  0.5052
10282SOL    HW131024   2.468   8.412   6.230  1.1719 -0.2554 -0.1159
10282SOL    HW231025   2.446   8.255   6.271 -0.0669  0.1314  0.7213
10283SOL     OW31026   4.823   7.708   6.636 -0.4171  0.0127 -0.2786
10283SOL    HW131027   4.901   7.738   6.582 -2.6084 -0.6922 -4.2530
10283SOL    HW231028   4.845   7.621   6.682  1.0882 -0.2235 -1.3786
10284SOL     OW31029   7.338   3.369   2.832  0.2749  0.2715  0.9627
10284SOL    HW131030   7.305   3.429   2.905 -0.5340 -0.4500  1.2101
10284SOL    HW231031   7.437   3.381   2.822 -0.0194  2.4982  0.1819
10285SOL     OW31032   4.652   3.157   8.243  0.7055 -0.0670 -0.3196
10285SOL    HW131033   4.555   3.176   8.227  0.8917  0.3697 -0.9834
10285SOL    HW231034   4.682   3.083   8.183  0.9291  0.2395 -0.5967
10286SOL     OW31035   3.390   6.508   6.012  0.3634  0.2221  0.1032
10286SOL    HW131036   3.379   6.446   6.089  1.4274  1.9549  1.7189
10286SOL    HW231037   3.488   6.525   5.996  0.1934 -0.3514 -1.8805
10287SOL     OW31038   1.741   7.987   5.133  0.0839 -0.2419 -0.2431
10287SOL    HW131039   1.777   8.041   5.057  0.7826  0.8223  0.8158
10287SOL    HW231040   1.808   7.983   5.206 -0.9373 -0.4484  0.7149
10288SOL     OW31041   4.883   2.794   5.735 -0.2563  0.5169 -0.0507
10288SOL    HW131042   4.870   2.792   5.834  0.4297  0.7617  0.0501
10288SOL    HW231043   4.903   2.701   5.702  0.0602  0.5234  0.1192
10289SOL     OW31044   7.580   0.211   0.643 -0.1731  0.0408 -0.5324
10289SOL    HW131045   7.481   0.199   0.639 -0.1804 -0.4437  0.5864
10289SOL    HW231046   7.624   0.145   0.582 -0.4663 -1.5602  0.9053
10290SOL     OW31047   4.228   7.675   0.534 -0.0694 -0.2718  0.1197
10290SOL    HW131048   4.282   7.591   0.545  0.2894 -0.3088 -1.6947
10290SOL    HW231049   4.247   7.737   0.611  0.1894 -1.5372  1.1168
10291SOL     OW31050   8.348   6.014   3.095 -0.0136  0.4304 -0.0368
10291SOL    HW131051   8.264   6.018   3.150  0.1062 -0.0746  0.1875
10291SOL    HW231052   8.324   5.992   3.001 -0.0826 -0.4329  0.1745
10292SOL     OW31053   4.077   0.086   8.699  0.2219 -0.4895 -0.2112
10292SOL    HW131054   4.160   0.138   8.681  0.2973  0.0084  1.3865
10292SOL    HW231055   4.004   0.115   8.638  0.7080  0.4004 -0.3707
10293SOL     OW31056   2.751   4.174   2.004  0.2965  0.2851 -0.4317
10293SOL    HW131057   2.791   4.263   1.988  0.7136  0.1031 -0.4151
10293SOL    HW231058   2.823   4.106   2.016 -0.0174 -0.2632 -1.5677
10294SOL     OW31059   5.099   3.874   8.346 -0.2188  0.0704 -0.1704
10294SOL    HW131060   5.012   3.825   8.337 -0.0303 -0.7598  1.8118
10294SOL    HW231061   5.173   3.807   8.351  0.7362  0.7881 -2.9370
10295SOL     OW31062   3.644   5.603   3.046 -0.3569 -0.2540  0.1312
10295SOL    HW131063   3.630   5.508   3.075 -1.8709  0.3988  1.7594
10295SOL    HW231064   3.555   5.645   3.026  0.4142  0.1602 -3.0904
10296SOL     OW31065   4.421   4.114   7.369  0.2006 -0.2656 -0.1662
10296SOL    HW131066   4.480   4.103   7.449 -1.1836 -2.2620  0.6575
10296SOL    HW231067   4.477   4.106   7.286  1.2947 -0.8912  0.5961
10297SOL     OW31068   6.343   3.307   2.197  0.3179  0.2211 -0.1116
10297SOL    HW131069   6.425   3.314   2.254  0.7699  0.9904 -0.8502
10297SOL    HW231070   6.267   3.353   2.243 -0.2107 -1.9696  1.4128
10298SOL     OW31071   6.112   3.836   4.809 -0.4199 -0.0649  0.2040
10298SOL    HW131072   6.055   3.798   4.736  0.6807  1.1942 -1.4016
10298SOL    HW231073   6.069   3.918   4.846 -1.0283 -0.7615  1.0768
10299SOL     OW31074   5.841   6.905   0.918 -0.1972  0.1487 -0.1699
10299SOL    HW131075   5.878   6.997   0.907  0.1468  0.1151  0.6490
10299SOL    HW231076   5.808   6.893   1.012  1.2600 -1.0997  0.2176
10300SOL     OW31077   3.300   8.185   8.123 -0.0627  0.3504  0.0464
10300SOL    HW131078   3.374   8.118   8.127 -0.8399 -0.5156  0.4036
10300SOL    HW231079   3.272   8.198   8.028 -0.8737 -0.9652  0.0742
10301SOL     OW31080   7.140   6.294   0.954  0.1335  0.5101  0.0039
10301SOL    HW131081   7.043   6.304   0.974 -0.2694 -2.0976 -0.2797
10301SOL    HW231082   7.194   6.332   1.030 -1.2213 -1.6202  2.1850
10302SOL     OW31083   2.290   5.388   8.290 -0.0474  0.0865 -0.0627
10302SOL    HW131084   2.229   5.456   8.249 -0.8979 -0.5147  0.1557
10302SOL    HW231085   2.385   5.409   8.267 -0.3077  1.2177 -0.1715
10303SOL     OW31086   7.528   1.565   3.565  0.4256  0.0663  0.1690
10303SOL    HW131087   7.468   1.496   3.524 -0.4871  1.0133 -0.1376
10303SOL    HW231088   7.490   1.592   3.654  1.8797 -1.2856  1.2458
10304SOL     OW31089   7.922   4.424   4.448 -0.2501 -0.4652 -0.4612
10304SOL    HW131090   7.940   4.482   4.528 -0.2445  0.2873 -0.9992
10304SOL    HW231091   7.845   4.363   4.468  0.8270 -1.5136  0.7358
10305SOL     OW31092   3.753   2.754   7.556  0.0278 -0.0420  0.3396
10305SOL    HW131093   3.847   2.760   7.522 -0.8305 -0.0380 -2.2159
10305SOL    HW231094   3.728   2.658   7.568  0.1742 -0.0556  0.5580
10306SOL     OW31095   2.780   2.110   2.300 -0.6132  0.0991 -0.2986
10306SOL    HW131096   2.685   2.130   2.323 -0.1175  2.4759 -0.0565
10306SOL    HW231097   2.824   2.193   2.266  1.1025 -1.2076 -1.4609
10307SOL     OW31098   0.276   8.770   0.406 -0.2228  0.1690 -0.2589
10307SOL    HW131099   0.336   8.823   0.346 -1.1777 -0.2744 -1.6668
10307SOL    HW231100   0.198   8.827   0.433 -0.2190  0.1042 -0.1110
10308SOL     OW31101   4.379   0.060   3.079 -0.1574  0.1535  0.1979
10308SOL    HW131102   4.472   0.076   3.046 -0.5137 -0.5397 -1.2112
10308SOL    HW231103   4.382   0.003   3.161  0.6575  0.1217  0.1488
10309SOL     OW31104   8.333   7.913   1.508  0.3311 -0.1089  0.4471
10309SOL    HW131105   8.265   7.972   1.464  1.2462  0.0647 -0.7863
10309SOL    HW231106   8.312   7.817   1.485  1.4428  0.0371 -1.4016
10310SOL     OW31107   4.988   7.751   6.225  0.9023 -0.3289 -0.0505
10310SOL    HW131108   5.026   7.782   6.138  2.5744  1.5885  1.2675
10310SOL    HW231109   5.062   7.725   6.287 -0.0929  0.4640  1.5370
10311SOL     OW31110   7.043   4.473   1.753  0.0500  0.3900 -0.2124
10311SOL    HW131111   6.944   4.466   1.764  0.0389  0.4456 -0.2815
10311SOL    HW231112   7.084   4.501   1.840 -0.0432  0.8668 -0.3213
10312SOL     OW31113   5.385   8.103   2.456 -0.3408  0.1146  0.0991
10312SOL    HW131114   5.419   8.091   2.363  0.6692 -1.4822  0.6342
10312SOL    HW231115   5.286   8.091   2.458 -0.0297 -3.4157 -0.3035
10313SOL     OW31116   3.498   2.601   2.580  0.2356 -0.0743  0.4025
10313SOL    HW131117   3.401   2.578   2.571  0.4584 -0.4537 -1.3674
10313SOL    HW231118   3.524   2.598   2.677 -0.8958 -2.6366  0.7145
10314SOL     OW31119   6.683   2.621   1.515 -0.0055 -0.3264  0.3131
10314SOL    HW131120   6.629   2.675   1.580  0.8715  0.3158  0.5281
10314SOL    HW231121   6.766   2.588   1.560  0.2553 -0.4954 -0.2807
10315SOL     OW31122   2.321   2.186   6.917 -0.0565  0.1617  0.2858
10315SOL    HW131123   2.312   2.280   6.884  1.2124 -0.6969 -2.9139
10315SOL    HW231124   2.413   2.173   6.953 -0.5668  0.3502  1.7421
10316SOL     OW31125   2.975   6.633   5.754  0.9373  0.2634  0.3402
10316SOL    HW131126   2.959   6.564   5.825  2.5099 -1.0726 -0.5474
10316SOL    HW231127   2.899   6.632   5.690  0.6825 -0.2509  0.6426
10317SOL     OW31128   6.154   5.680   0.468 -0.3252  0.2893 -0.6238
10317SOL    HW131129   6.193   5.591   0.443 -2.8391 -1.6000  1.5035
10317SOL    HW231130   6.072   5.696   0.413  0.4656  1.6742 -1.4465
10318SOL     OW31131   5.341   5.184   2.898  0.0765  0.0924  0.1456
10318SOL    HW131132   5.321   5.101   2.950  2.7714 -0.8088 -0.1380
10318SOL    HW231133   5.439   5.201   2.897 -0.0829  1.4213 -2.6769
10319SOL     OW31134   1.495   1.023   8.216 -0.0829  0.1909 -0.0497
10319SOL    HW131135   1.564   0.989   8.280 -0.0866  0.6076  0.1825
10319SOL    HW231136   1.418   0.960   8.213  0.6532 -0.6927 -0.9201
10320SOL     OW31137   5.396   7.247   8.324 -0.3731  0.7900 -0.0141
10320SOL    HW131138   5.396   7.178   8.397  1.6896  0.2579 -0.4278
10320SOL    HW231139   5.327   7.223   8.256  0.1652 -0.8331 -0.0542
10321SOL     OW31140   5.728   7.139   7.972  0.9361 -0.4580 -0.0808
10321SOL    HW131141   5.699   7.168   7.880  1.4564  2.9429  0.7066
10321SOL    HW231142   5.653   7.155   8.036  1.1613 -1.1844  0.3633
10322SOL     OW31143   8.792   1.120   2.640 -0.2899 -0.1246  1.2108
10322SOL    HW131144   8.888   1.131   2.668 -0.6943  1.9775  2.0118
10322SOL    HW231145   8.768   1.023   2.639  1.5823 -0.6437  1.8820
10323SOL     OW31146   7.475   7.295   5.353 -0.2474  0.0156  0.1023
10323SOL    HW131147   7.506   7.238   5.429  0.4958  1.0370  0.5829
10323SOL    HW231148   7.419   7.240   5.291  1.6344 -1.6216 -0.2289
10324SOL     OW31149   5.439   3.969   6.461 -0.0974 -0.4701  0.4002
10324SOL    HW131150   5.475   3.897   6.521  2.2111  0.0813 -0.2110
10324SOL    HW231151   5.514   4.030   6.434 -1.7035  1.2567 -0.3617
10325SOL     OW31152   4.843   7.317   5.458 -0.0556 -0.5439  0.2382
10325SOL    HW131153   4.913   7.275   5.400 -0.6217 -1.1214 -0.0438
10325SOL    HW231154   4.763   7.257   5.462 -0.1863 -0.3195  1.2914
10326SOL     OW31155   5.818   4.120   1.289 -0.6089 -0.4015  0.2531
10326SOL    HW131156   5.722   4.141   1.270 -0.0237  1.7611 -0.6564
10326SOL    HW231157   5.842   4.153   1.381 -0.0703  1.7931 -0.6094
10327SOL     OW31158   2.193   3.992   0.755 -0.0082 -0.0483  0.0160
10327SOL    HW131159   2.193   4.064   0.685 -2.1398  0.0339  0.0494
10327SOL    HW231160   2.185   3.903   0.710 -2.4555  0.0577  0.1118
10328SOL     OW31161   4.233   5.927   8.740  0.2721  0.5773 -0.3060
10328SOL    HW131162   4.178   5.874   8.676 -1.1101  0.3177  1.0479
10328SOL    HW231163   4.192   6.018   8.752 -0.0396  0.2937  0.9036
10329SOL     OW31164   8.440   5.558   6.055 -0.5198  0.1148  0.2626
10329SOL    HW131165   8.444   5.466   6.094 -0.1243  0.1737  0.3669
10329SOL    HW231166   8.505   5.565   5.980  1.4460  1.1005  1.9704
10330SOL     OW31167   7.959   2.078   6.698  0.3460  0.1795  0.3000
10330SOL    HW131168   8.054   2.094   6.672  0.1620  1.7294  0.4473
10330SOL    HW231169   7.952   1.993   6.751  2.0158  1.0777  2.1152
10331SOL     OW31170   8.266   8.699   6.099 -0.4437 -0.3162  0.2370
10331SOL    HW131171   8.259   8.600   6.092  1.5695 -0.4055 -1.1857
10331SOL    HW231172   8.346   8.723   6.153  0.7700  0.4760 -1.7978
10332SOL     OW31173   6.838   1.246   8.795  0.3102 -0.2311 -0.2085
10332SOL    HW131174   6.927   1.289   8.811  0.3441 -0.5411  0.4921
10332SOL    HW231175   6.808   1.198   8.878 -1.4532  1.5649  0.2710
10333SOL     OW31176   0.817   8.851   6.656  0.1117  0.2877 -0.1423
10333SOL    HW131177   0.864   8.795   6.724  0.8113  0.4249 -0.5060
10333SOL    HW231178   0.794   8.795   6.576  0.7096  0.4837 -0.4575
10334SOL     OW31179   3.083   8.393   8.623 -0.4442  0.1172 -0.1951
10334SOL    HW131180   3.110   8.360   8.713 -1.9184  0.0052  0.2270
10334SOL    HW231181   3.006   8.338   8.589 -2.4940  2.5751  0.1991
10335SOL     OW31182   5.938   4.137   4.300  0.0550  0.5577  0.9388
10335SOL    HW131183   5.945   4.187   4.213  2.0345  0.1321  0.7970
10335SOL    HW231184   5.842   4.123   4.323 -0.5149  0.9087 -1.0420
10336SOL     OW31185   2.716   7.911   3.966 -0.3888  0.2513  0.2794
10336SOL    HW131186   2.742   8.007   3.978 -1.5393  0.4700  1.1651
10336SOL    HW231187   2.797   7.857   3.945  0.0755  1.6891 -2.1304
10337SOL     OW31188   5.635   7.263   3.189 -0.1385  0.1060 -0.5333
10337SOL    HW131189   5.667   7.333   3.126 -0.2372 -1.0297 -1.9005
10337SOL    HW231190   5.550   7.224   3.155 -0.0096 -0.7792  0.1200
10338SOL     OW31191   7.926   2.680   4.815 -0.3129  0.8962  0.2019
10338SOL    HW131192   7.828   2.697   4.803 -0.4171 -1.0299 -2.5331
10338SOL    HW231193   7.954   2.710   4.907 -3.4452  1.3676  1.1213
10339SOL     OW31194   5.816   2.686   2.659  0.9233 -0.2023 -0.3821
10339SOL    HW131195   5.786   2.666   2.753  1.1359 -1.0016 -0.4745
10339SOL    HW231196   5.883   2.618   2.631  0.3738 -0.3556 -1.3520
10340SOL     OW31197   5.724   4.780   3.764 -0.0581 -0.4302  0.1020
10340SOL    HW131198   5.641   4.728   3.780 -2.2696  2.9785  0.7261
10340SOL    HW231199   5.707   4.851   3.696  2.7117 -0.3316 -0.6101
10341SOL     OW31200   1.064   1.437   7.544 -0.1507  0.2964 -0.2850
10341SOL    HW131201   0.975   1.470   7.576 -0.6263  0.5347 -1.7775
10341SOL    HW231202   1.110   1.388   7.618 -1.2123  0.7798  0.7245
10342SOL     OW31203   4.228   5.507   4.889  0.0663 -0.1739  0.3808
10342SOL    HW131204   4.168   5.458   4.825 -0.1141  2.4986 -1.6962
10342SOL    HW231205   4.318   5.463   4.890 -0.7671 -1.9858  0.6042
10343SOL     OW31206   5.072   5.819   3.586  0.2972  0.2154  0.0628
10343SOL    HW131207   5.169   5.837   3.603  0.1954  1.3251 -0.4278
10343SOL    HW231208   5.017   5.885   3.636 -0.1521  0.3842 -0.6413
10344SOL     OW31209   1.731   6.637   1.781  0.2243  0.1442 -0.1818
10344SOL    HW131210   1.723   6.563   1.847 -1.5560  0.9790  0.6053
10344SOL    HW231211   1.711   6.725   1.825  1.2197  0.9980 -1.3350
10345SOL     OW31212   0.567   5.350   0.607  0.0381  0.4110 -0.2692
10345SOL    HW131213   0.488   5.411   0.615  0.4363  0.7006  2.3225
10345SOL    HW231214   0.546   5.263   0.653  1.2860  0.5954  0.6915
10346SOL     OW31215   4.641   4.294   4.529  0.5468 -0.0851 -0.2211
10346SOL    HW131216   4.627   4.229   4.455 -1.7556  0.6372 -0.5077
10346SOL    HW231217   4.571   4.279   4.600  0.8878  1.1253  0.4019
10347SOL     OW31218   2.809   1.664   3.662 -0.4537  0.2993 -0.0298
10347SOL    HW131219   2.908   1.650   3.658 -0.6774 -1.0861 -1.5509
10347SOL    HW231220   2.789   1.736   3.728  1.7971  2.8376 -1.8907
10348SOL     OW31221   2.970   6.799   1.653  0.2987  0.4656 -0.5460
10348SOL    HW131222   2.907   6.725   1.629 -0.4708  1.5100 -1.8762
10348SOL    HW231223   2.994   6.850   1.571  0.9180  1.6179  0.3339
10349SOL     OW31224   7.195   8.220   4.159  0.3769  0.1672  0.5707
10349SOL    HW131225   7.114   8.167   4.184  1.8239 -1.6295  1.6854
10349SOL    HW231226   7.195   8.238   4.060  0.1452 -2.5535  0.0087
10350SOL     OW31227   2.326   0.359   1.660  0.6121  0.2392  1.2585
10350SOL    HW131228   2.330   0.457   1.677 -3.6888  1.0446 -0.8426
10350SOL    HW231229   2.234   0.326   1.679  1.5487 -3.1297  0.5730
10351SOL     OW31230   1.525   2.545   5.368 -0.3965  0.2104  0.4132
10351SOL    HW131231   1.565   2.530   5.458 -1.6575  0.2726  1.0051
10351SOL    HW231232   1.552   2.635   5.333  1.2585 -0.3829  0.0746
10352SOL     OW31233   6.779   1.485   7.944 -0.4731  0.1066 -0.3074
10352SOL    HW131234   6.848   1.433   7.894 -0.8042 -0.9993  0.3654
10352SOL    HW231235   6.701   1.503   7.883 -1.5279 -2.5111  0.1438
10353SOL     OW31236   6.905   4.270   7.566  0.0618  0.1601  0.1013
10353SOL    HW131237   6.949   4.356   7.592  1.6833 -0.6822  0.2870
10353SOL    HW231238   6.897   4.265   7.466  1.5185 -0.1497 -0.0291
10354SOL     OW31239   1.439   3.085   4.872 -0.0627 -0.5662 -0.0414
10354SOL    HW131240   1.519   3.127   4.915 -1.8155  0.1571  2.7606
10354SOL    HW231241   1.436   2.988   4.897 -0.0161 -0.6165 -0.2317
10355SOL     OW31242   8.514   8.335   2.588  0.1448 -0.3084  0.4330
10355SOL    HW131243   8.443   8.375   2.529 -1.5602 -1.5538  1.5157
10355SOL    HW231244   8.590   8.304   2.532 -1.5555 -1.7558 -1.2421
10356SOL     OW31245   2.508   8.859   6.605  0.1240 -0.6460  0.3488
10356SOL    HW131246   2.543   8.780   6.555 -2.4929 -1.7521  0.0707
10356SOL    HW231247   2.573   8.886   6.675  1.9815 -1.7706 -0.8676
10357SOL     OW31248   4.399   2.334   1.684 -0.0513  0.5306  0.4135
10357SOL    HW131249   4.414   2.236   1.674  1.2304  0.5274  1.8621
10357SOL    HW231250   4.480   2.376   1.725 -0.6079  2.1860 -0.0898
10358SOL     OW31251   5.275   3.733   3.284 -0.2507 -0.9315 -0.5843
10358SOL    HW131252   5.320   3.819   3.261 -3.7213  1.1446 -0.4136
10358SOL    HW231253   5.272   3.723   3.383  1.4759 -2.0968 -0.6204
10359SOL     OW31254   7.164   5.313   2.374  0.1366 -0.1991  0.0234
10359SOL    HW131255   7.099   5.383   2.405  0.0704  0.6672 -1.9651
10359SOL    HW231256   7.246   5.317   2.431  0.6114  2.2912 -0.7080
10360SOL     OW31257   7.475   5.052   2.300  0.3843  0.6336  0.5547
10360SOL    HW131258   7.409   4.980   2.317 -0.8981  1.8310  0.8156
10360SOL    HW231259   7.562   5.012   2.272 -0.0487 -1.0275  1.4847
10361SOL     OW31260   6.521   7.245   7.816  0.2133 -0.2859 -0.2813
10361SOL    HW131261   6.471   7.321   7.857 -1.8885 -1.1955 -1.0206
10361SOL    HW231262   6.505   7.162   7.868 -0.8742 -1.0392 -1.7445
10362SOL     OW31263   0.641   4.422   7.300 -0.0655 -0.1005  0.5693
10362SOL    HW131264   0.716   4.460   7.356 -1.2921 -0.6540  2.7106
10362SOL    HW231265   0.562   4.406   7.358 -2.5818  2.1804 -1.9385
10363SOL     OW31266   6.404   4.594   3.946 -0.0681 -0.3689 -0.0960
10363SOL    HW131267   6.447   4.676   3.908 -1.8773 -0.4901 -2.6674
10363SOL    HW231268   6.434   4.514   3.895 -0.7150 -0.8769  0.3125
10364SOL     OW31269   1.582   6.939   2.414 -0.4359 -0.4200 -0.0619
10364SOL    HW131270   1.641   6.986   2.479  1.8263 -2.2340 -0.6596
10364SOL    HW231271   1.493   6.923   2.456  0.2709  0.2537  1.8198
10365SOL     OW31272   4.970   2.193   6.732 -0.1161  0.7509 -1.0918
10365SOL    HW131273   4.947   2.290   6.727  1.6182  1.1659 -1.6782
10365SOL    HW231274   4.932   2.153   6.815 -2.1009  1.5531 -1.5461
10366SOL     OW31275   6.412   3.405   5.041 -0.3547  0.1076  0.6728
10366SOL    HW131276   6.381   3.473   4.976  2.4855  0.0622 -0.9051
10366SOL    HW231277   6.370   3.317   5.020 -2.2143  0.8052  1.2449
10367SOL     OW31278   3.325   4.901   7.256 -0.1109 -0.0538  0.2536
10367SOL    HW131279   3.302   4.906   7.158  1.3700 -1.9953 -0.2535
10367SOL    HW231280   3.419   4.934   7.270 -0.2057 -0.0867  0.9915
10368SOL     OW31281   4.822   2.338   5.116 -0.0854  0.2835  0.0022
10368SOL    HW131282   4.885   2.391   5.172  1.6225 -0.3545 -1.2489
10368SOL    HW231283   4.759   2.400   5.069  0.5245  1.0416  0.1592
10369SOL     OW31284   2.287   8.307   4.243  0.0012 -0.1654  0.3236
10369SOL    HW131285   2.297   8.352   4.154  1.3337 -1.4152 -0.2034
10369SOL    HW231286   2.369   8.325   4.299 -0.1461 -0.6570  0.6999
10370SOL     OW31287   3.849   8.341   0.458 -0.7735  0.1526 -0.1433
10370SOL    HW131288   3.891   8.258   0.495  1.3207  1.6651  1.1681
10370SOL    HW231289   3.903   8.373   0.380 -1.7098  0.1523 -0.7961
10371SOL     OW31290   5.368   4.327   6.232  0.3010  0.3305 -0.0578
10371SOL    HW131291   5.320   4.399   6.282  0.7044  1.1866 -0.8927
10371SOL    HW231292   5.301   4.259   6.201  0.0647 -0.4207  1.8917
10372SOL     OW31293   6.312   1.450   7.029 -0.1419 -0.1247 -0.0135
10372SOL    HW131294   6.407   1.471   7.050  0.2964 -0.8917 -1.1476
10372SOL    HW231295   6.274   1.392   7.100 -0.8215  2.7885  2.2214
10373SOL     OW31296   7.094   3.740   7.641 -0.0256  0.1032  0.1186
10373SOL    HW131297   7.121   3.745   7.545 -0.9362 -1.1186 -0.2267
10373SOL    HW231298   7.171   3.706   7.695 -0.1220 -1.1813 -0.5129
10374SOL     OW31299   1.804   2.734   4.248  0.1044 -0.1835 -0.4875
10374SOL    HW131300   1.725   2.795   4.257 -0.0379 -0.5251  0.8304
10374SOL    HW231301   1.888   2.788   4.246 -0.0814  0.1125 -0.3988
10375SOL     OW31302   8.006   6.507   1.922 -0.7599  0.0518 -0.2043
10375SOL    HW131303   7.985   6.491   2.019  0.6619 -1.8080 -0.1267
10375SOL    HW231304   8.069   6.584   1.914  0.4782 -0.8263  0.5742
10376SOL     OW31305   7.248   5.488   4.843  0.3388 -0.1290 -0.3397
10376SOL    HW131306   7.288   5.448   4.925 -1.2559 -0.5512  0.2702
10376SOL    HW231307   7.204   5.416   4.789 -0.1553  0.3956 -0.6471
10377SOL     OW31308   3.289   6.000   3.874 -0.3777 -0.7822 -0.0950
10377SOL    HW131309   3.349   6.039   3.803 -1.2998  0.1191 -0.3941
10377SOL    HW231310   3.214   6.063   3.893 -1.0667 -1.7585  0.5077
10378SOL     OW31311   3.957   4.991   1.324 -0.2065 -0.3027 -0.0538
10378SOL    HW131312   3.963   4.976   1.423  0.4591 -0.6470 -0.1432
10378SOL    HW231313   3.869   4.955   1.291 -0.3891 -0.2821  0.3905
10379SOL     OW31314   2.090   4.951   1.163  0.5135 -0.0517 -0.3970
10379SOL    HW131315   2.186   4.942   1.139  0.6386  0.4258 -0.0882
10379SOL    HW231316   2.035   4.963   1.080  0.4990 -2.0585 -0.7292
10380SOL     OW31317   5.706   2.638   3.327  0.5206 -0.5489 -0.1790
10380SOL    HW131318   5.703   2.641   3.427 -1.6771  0.1566 -0.2062
10380SOL    HW231319   5.614   2.619   3.292  0.8313  1.2117 -2.1073
10381SOL     OW31320   4.464   6.095   1.746  0.6261  0.9135 -0.6333
10381SOL    HW131321   4.412   6.125   1.666  0.0426  3.6682  0.6472
10381SOL    HW231322   4.413   6.118   1.829  2.2028  0.1841  0.5927
10382SOL     OW31323   5.769   7.657   8.207 -0.0194 -0.2155 -0.6951
10382SOL    HW131324   5.810   7.567   8.196  1.1923  0.3865 -1.3228
10382SOL    HW231325   5.698   7.670   8.137 -0.3589 -0.7601 -0.4570
10383SOL     OW31326   4.000   4.295   1.162  0.8838 -0.4393  0.3400
10383SOL    HW131327   4.094   4.309   1.194  0.6201  1.3327  0.4554
10383SOL    HW231328   3.998   4.292   1.062  1.3761 -3.4096  0.3134
10384SOL     OW31329   1.514   4.481   8.410  0.1620  0.9019  0.6008
10384SOL    HW131330   1.571   4.550   8.455  0.8998  0.8877 -0.2782
10384SOL    HW231331   1.529   4.486   8.311 -0.6753  0.2709  0.4392
10385SOL     OW31332   6.493   7.785   4.593  0.4040 -0.3693  0.0616
10385SOL    HW131333   6.407   7.778   4.643  0.7614 -0.3288  0.6919
10385SOL    HW231334   6.567   7.744   4.647  0.7217 -0.7153 -0.6216
10386SOL     OW31335   6.617   1.839   2.591  0.5937 -0.3823  0.0414
10386SOL    HW131336   6.525   1.865   2.621  0.4768  0.4131 -0.9377
10386SOL    HW231337   6.678   1.834   2.670  0.3157  1.7236  0.4567
10387SOL     OW31338   6.409   4.472   8.122 -0.0717 -0.2232 -0.2985
10387SOL    HW131339   6.405   4.482   8.023 -1.1849  0.1973 -0.2259
10387SOL    HW231340   6.438   4.379   8.144 -0.1944 -0.4409 -1.0186
10388SOL     OW31341   6.081   4.266   7.695 -0.2791 -0.1796 -0.4427
10388SOL    HW131342   5.993   4.263   7.743 -0.0437 -0.5843 -0.0311
10388SOL    HW231343   6.106   4.361   7.678  0.0079  0.0114  0.9331
10389SOL     OW31344   8.510   8.073   4.124 -0.8699 -0.3811 -0.1738
10389SOL    HW131345   8.446   8.113   4.059 -0.5461 -2.3740 -1.8010
10389SOL    HW231346   8.459   8.018   4.191 -1.0387  0.0770  0.0815
10390SOL     OW31347   5.149   0.989   7.675  0.1588  0.2149  0.3497
10390SOL    HW131348   5.172   0.955   7.584  2.3397  2.4794 -0.0643
10390SOL    HW231349   5.111   1.081   7.667 -1.8595 -0.4357  1.6448
10391SOL     OW31350   4.099   7.511   8.541 -0.0219  0.3590 -0.2583
10391SOL    HW131351   4.186   7.464   8.556 -0.8601 -1.3061 -0.3540
10391SOL    HW231352   4.093   7.590   8.602  1.1471 -0.0632  0.4433
10392SOL     OW31353   0.688   4.923   5.489 -0.2324 -0.3115  0.4337
10392SOL    HW131354   0.779   4.892   5.516 -0.2006 -0.0918  0.5840
10392SOL    HW231355   0.678   4.917   5.390  0.8899  2.1297  0.0977
10393SOL     OW31356   5.684   3.699   2.313  0.2310 -0.4107 -0.2816
10393SOL    HW131357   5.744   3.677   2.390 -0.6500 -1.5563  0.0987
10393SOL    HW231358   5.705   3.640   2.236  1.4156  1.0329 -1.1237
10394SOL     OW31359   4.535   4.034   7.623 -0.1012  0.1115 -0.1451
10394SOL    HW131360   4.629   4.002   7.636 -0.2754 -0.2507  0.2612
10394SOL    HW231361   4.472   3.969   7.665 -0.6315 -0.4766 -1.7422
10395SOL     OW31362   3.253   7.598   8.029  0.7045 -0.2878  0.3050
10395SOL    HW131363   3.317   7.631   8.098  2.5647  0.3040 -1.5867
10395SOL    HW231364   3.305   7.562   7.950 -1.3110 -0.6369 -0.9288
10396SOL     OW31365   3.035   4.748   5.792 -0.6581 -0.2252  0.1806
10396SOL    HW131366   3.100   4.672   5.792  0.0575  0.2674  3.2259
10396SOL    HW231367   3.082   4.831   5.761 -0.0826 -0.0873  1.3748
10397SOL     OW31368   8.328   2.166   7.532  0.1052 -0.1516 -0.0983
10397SOL    HW131369   8.388   2.162   7.452 -0.6433  3.2473 -1.0111
10397SOL    HW231370   8.293   2.075   7.552  0.9362 -1.2778 -3.1784
10398SOL     OW31371   4.758   5.079   0.534 -0.0022 -0.3039  0.2165
10398SOL    HW131372   4.663   5.080   0.564 -0.1905 -0.9701 -0.3245
10398SOL    HW231373   4.796   5.171   0.542 -0.9536  0.1596 -0.3614
10399SOL     OW31374   0.083   7.809   8.820  0.6728 -0.1400 -0.1994
10399SOL    HW131375   0.040   7.808   8.910  1.8608 -2.0723  0.4049
10399SOL    HW231376   0.048   7.732   8.766  0.7852  0.3570 -0.9951
10400SOL     OW31377   3.115   2.260   5.511  0.4684  0.0433 -0.0737
10400SOL    HW131378   3.157   2.341   5.551  0.5221  1.2137 -2.3553
10400SOL    HW231379   3.186   2.192   5.491  0.6999  0.3033 -0.1320
10401SOL     OW31380   4.158   0.356   2.805 -0.4198 -0.8891  0.5262
10401SOL    HW131381   4.253   0.327   2.800 -0.3089 -0.3945 -0.4903
10401SOL    HW231382   4.148   0.448   2.767 -1.3397 -1.0431  0.3515
10402SOL     OW31383   7.409   2.973   0.077  0.4889  0.3293 -0.4997
10402SOL    HW131384   7.496   3.019   0.059 -0.6815  2.3555 -1.2533
10402SOL    HW231385   7.379   2.992   0.170  1.4431 -1.4665  0.2189
10403SOL     OW31386   2.753   6.061   5.172 -0.1102  0.1247  0.1901
10403SOL    HW131387   2.821   5.995   5.205  0.8524  1.4173  0.8879
10403SOL    HW231388   2.709   6.104   5.251 -0.4835  0.5622 -0.2596
10404SOL     OW31389   1.140   0.845   8.698 -0.6520 -0.0634  0.0412
10404SOL    HW131390   1.174   0.939   8.694 -0.5512 -0.1209 -0.5944
10404SOL    HW231391   1.049   0.844   8.739 -0.7364  0.3418 -0.1247
10405SOL     OW31392   8.224   8.569   4.726  0.0308 -0.0685  0.2826
10405SOL    HW131393   8.156   8.523   4.669 -0.6572  0.7598  0.4221
10405SOL    HW231394   8.209   8.668   4.723  1.6554  0.2105 -0.2521
10406SOL     OW31395   8.172   1.258   3.406  0.7588 -0.1108  0.0414
10406SOL    HW131396   8.140   1.190   3.473  0.4856 -0.1728 -0.1531
10406SOL    HW231397   8.166   1.349   3.447 -1.0609  0.0537 -0.4702
10407SOL     OW31398   5.837   8.224   7.316 -0.1375  0.1146 -0.4075
10407SOL    HW131399   5.909   8.160   7.287  1.4513  1.7793 -0.2757
10407SOL    HW231400   5.831   8.223   7.416 -0.0177  0.2725 -0.3991
10408SOL     OW31401   2.923   6.377   1.526 -0.1985  0.2351  0.6552
10408SOL    HW131402   3.023   6.372   1.516 -0.3207 -0.0188 -0.6476
10408SOL    HW231403   2.891   6.295   1.574  0.0641 -0.5372 -0.4521
10409SOL     OW31404   2.831   5.861   4.905  0.0647 -0.5965 -0.1825
10409SOL    HW131405   2.771   5.789   4.940  1.8203 -2.9790 -1.7893
10409SOL    HW231406   2.865   5.835   4.815  0.4646  2.5134 -1.0452
10410SOL     OW31407   3.237   1.057   0.356  0.1786  0.5779  0.1946
10410SOL    HW131408   3.148   1.011   0.352  0.1786  0.6559 -1.5788
10410SOL    HW231409   3.223   1.156   0.354  0.2871  0.5903 -0.7838
10411SOL     OW31410   1.865   8.796   8.287 -0.3712 -0.2659  0.0777
10411SOL    HW131411   1.923   8.720   8.257 -1.6658 -1.3398  0.2019
10411SOL    HW231412   1.917   8.853   8.351  1.4083  0.3493 -1.8077
10412SOL     OW31413   3.722   5.597   5.417 -0.1824  0.0564  0.4892
10412SOL    HW131414   3.751   5.693   5.426  1.7854 -0.5544  1.0815
10412SOL    HW231415   3.726   5.553   5.507  0.5071 -0.9810 -0.0324
10413SOL     OW31416   1.758   7.066   2.266  0.4450  0.6774 -0.5583
10413SOL    HW131417   1.816   7.002   2.216  1.0115  0.3113  0.5252
10413SOL    HW231418   1.683   7.017   2.309  1.7632  0.4052  1.5995
10414SOL     OW31419   2.538   8.749   1.172 -0.2846  0.4689  0.2086
10414SOL    HW131420   2.585   8.714   1.253 -0.1518  1.7657  0.7162
10414SOL    HW231421   2.574   8.840   1.148 -1.4260  0.8072 -0.3327
10415SOL     OW31422   5.504   0.385   2.958  0.2973  0.6157  0.0041
10415SOL    HW131423   5.514   0.381   2.859  0.1690  0.8216 -0.0185
10415SOL    HW231424   5.472   0.296   2.992  1.5503  0.1496  0.0114
10416SOL     OW31425   1.395   3.398   1.798 -0.0243  0.3605 -0.3219
10416SOL    HW131426   1.396   3.298   1.797 -0.1631  0.3445  0.6056
10416SOL    HW231427   1.486   3.432   1.820 -0.3250  0.3990  0.9350
10417SOL     OW31428   3.852   3.423   8.019  0.4204  0.3522 -0.1547
10417SOL    HW131429   3.910   3.504   8.009  1.4728 -0.3896 -0.1947
10417SOL    HW231430   3.770   3.448   8.071  1.5119  1.0875  1.3019
10418SOL     OW31431   2.574   5.552   7.235  0.2887  0.0100  0.0708
10418SOL    HW131432   2.618   5.467   7.265  1.5148  1.2107  1.9571
10418SOL    HW231433   2.482   5.558   7.275  0.8791  0.3350  1.4538
10419SOL     OW31434   3.042   0.255   1.757 -0.0174  0.1292  0.2149
10419SOL    HW131435   3.061   0.267   1.854  1.5846 -1.8080  0.2194
10419SOL    HW231436   3.111   0.195   1.717  0.1141  1.8848 -2.4343
10420SOL     OW31437   4.802   1.657   6.792 -0.3880  0.1210  0.3416
10420SOL    HW131438   4.743   1.656   6.872 -1.2972  3.6133 -0.1376
10420SOL    HW231439   4.863   1.577   6.795 -2.4400 -1.5307  2.8322
10421SOL     OW31440   8.708   1.669   3.457  0.1477 -0.2881 -0.8440
10421SOL    HW131441   8.718   1.571   3.476 -1.6763  0.0479  2.8070
10421SOL    HW231442   8.788   1.718   3.491 -0.7499 -0.2374  1.4185
10422SOL     OW31443   6.648   7.625   2.437 -0.0251  1.1751 -0.0448
10422SOL    HW131444   6.716   7.574   2.385  0.4016 -0.5861  2.1064
10422SOL    HW231445   6.665   7.723   2.427  1.4613  0.8259 -1.2861
10423SOL     OW31446   4.216   2.957   4.049 -0.4156  0.1873 -0.4440
10423SOL    HW131447   4.147   2.971   4.121 -1.5197 -0.7430 -1.2854
10423SOL    HW231448   4.198   3.020   3.973 -0.2050  0.0898 -0.5745
10424SOL     OW31449   6.680   7.111   3.376  0.1803  0.1026 -0.1345
10424SOL    HW131450   6.742   7.047   3.331 -0.2772 -1.1085  0.8791
10424SOL    HW231451   6.673   7.087   3.473  0.6863  2.2608  0.4806
10425SOL     OW31452   1.868   4.808   7.862  0.7056 -0.0140  0.0075
10425SOL    HW131453   1.788   4.859   7.833 -0.0232 -0.8167  0.5248
10425SOL    HW231454   1.947   4.869   7.868 -0.1440  1.0662  0.6919
10426SOL     OW31455   6.963   0.876   0.270 -0.2298 -0.1809 -0.1348
10426SOL    HW131456   6.966   0.970   0.306 -1.2666 -0.5607  1.0131
10426SOL    HW231457   7.005   0.814   0.337  0.3575 -0.5609 -0.8437
10427SOL     OW31458   7.547   0.612   2.304  0.0651 -0.2895  0.3365
10427SOL    HW131459   7.456   0.604   2.262 -0.0178 -0.4703  0.5506
10427SOL    HW231460   7.567   0.708   2.321 -0.5488 -0.3230  1.3052
10428SOL     OW31461   4.974   6.541   7.299 -0.1040 -0.0214  0.3125
10428SOL    HW131462   4.992   6.521   7.396 -1.8853  2.1864  1.1860
10428SOL    HW231463   4.891   6.494   7.271 -0.6485  0.8662  0.4302
10429SOL     OW31464   1.599   4.959   4.661  0.1220  0.2546 -0.1537
10429SOL    HW131465   1.596   4.963   4.761  0.6031  1.7692 -0.1822
10429SOL    HW231466   1.678   4.904   4.633  0.9778  1.2117  0.3139
10430SOL     OW31467   0.805   1.158   6.144  0.3843 -0.0847 -0.5647
10430SOL    HW131468   0.832   1.149   6.048 -0.2859 -2.7627 -0.5868
10430SOL    HW231469   0.715   1.116   6.156  0.2972  0.5488  1.1972
10431SOL     OW31470   0.218   6.058   4.623 -0.2923  0.3559  0.1872
10431SOL    HW131471   0.212   6.130   4.554 -0.0382  0.7335  0.5500
10431SOL    HW231472   0.174   6.090   4.707  0.9394  0.5940  0.7621
10432SOL     OW31473   2.966   7.517   1.080 -0.2374  0.4788  0.2283
10432SOL    HW131474   2.919   7.497   1.165 -3.4420 -0.1398 -1.5117
10432SOL    HW231475   3.055   7.472   1.079 -0.3810 -0.0050  2.9404
10433SOL     OW31476   1.653   7.003   4.068 -0.2803 -0.3576 -0.3155
10433SOL    HW131477   1.728   6.942   4.044 -1.3361 -1.4113 -1.0462
10433SOL    HW231478   1.636   6.999   4.166 -1.0048 -2.0774 -0.4725
10434SOL     OW31479   1.869   0.948   6.814  0.5760 -0.0855 -0.3106
10434SOL    HW131480   1.801   0.960   6.887  1.5808 -1.1316  0.8318
10434SOL    HW231481   1.856   0.859   6.771 -0.8703  1.0431 -2.3896
10435SOL     OW31482   1.917   6.879   2.130 -0.3351 -0.3321  0.2148
10435SOL    HW131483   1.949   6.900   2.037  1.5720  0.4048  0.9812
10435SOL    HW231484   1.849   6.807   2.126  0.2238 -0.8140 -1.7136
10436SOL     OW31485   6.903   0.933   5.136 -0.1778 -0.4075 -0.1534
10436SOL    HW131486   6.948   0.848   5.108 -0.0591 -0.3974  0.0011
10436SOL    HW231487   6.806   0.916   5.152  0.2903 -1.1156  2.3306
10437SOL     OW31488   2.162   1.300   4.522  0.0953 -0.5007  0.1461
10437SOL    HW131489   2.178   1.384   4.574  0.9411 -1.0685  0.8354
10437SOL    HW231490   2.204   1.309   4.432 -1.6013  0.5877 -0.5834
10438SOL     OW31491   5.989   7.161   8.071 -0.2735  0.3101  0.0278
10438SOL    HW131492   6.007   7.129   8.164  0.1935 -0.8390 -0.4341
10438SOL    HW231493   5.901   7.126   8.041 -0.1385  0.1443 -0.1806
10439SOL     OW31494   0.734   4.858   4.773  0.6323 -0.0519  0.0477
10439SOL    HW131495   0.640   4.829   4.791  0.6806 -0.8836 -0.9659
10439SOL    HW231496   0.751   4.946   4.818 -0.6661  0.1804  0.1168
10440SOL     OW31497   0.667   3.255   4.139  0.3408 -0.1134 -0.4528
10440SOL    HW131498   0.767   3.256   4.136  0.3789 -0.2082  0.4671
10440SOL    HW231499   0.636   3.320   4.208 -0.1940 -0.8415 -0.0032
10441SOL     OW31500   1.118   2.093   7.307 -0.6869 -1.0335 -0.1167
10441SOL    HW131501   1.099   2.162   7.376  2.0871 -0.4632  0.2038
10441SOL    HW231502   1.102   2.002   7.345  1.5592 -0.7653  1.6494
10442SOL     OW31503   6.987   2.908   1.487  0.8804 -0.7776  0.7660
10442SOL    HW131504   7.003   2.984   1.426  1.4075 -1.2484  0.3103
10442SOL    HW231505   6.898   2.919   1.532  0.9974  0.1403  0.7763
10443SOL     OW31506   3.095   0.666   0.057  0.1040 -0.0358  0.0304
10443SOL    HW131507   3.083   0.569   0.078 -0.6279  0.1324  0.4196
10443SOL    HW231508   3.166   0.676  -0.013  1.7546 -0.6958  1.5387
10444SOL     OW31509   5.073   4.510   1.430 -0.6564  0.2239 -0.4097
10444SOL    HW131510   5.114   4.586   1.379 -0.9377  1.0682  0.5972
10444SOL    HW231511   5.121   4.425   1.407 -0.1783  0.7301 -1.3654
10445SOL     OW31512   8.454   8.607   8.699  0.3795  0.1954  0.2155
10445SOL    HW131513   8.392   8.563   8.634  1.2049 -1.1079  0.2877
10445SOL    HW231514   8.523   8.659   8.648  0.9941 -0.7801  0.0407
10446SOL     OW31515   4.608   7.546   0.920  0.6132 -0.0116  0.2072
10446SOL    HW131516   4.516   7.543   0.961  0.5662 -1.3301  0.0583
10446SOL    HW231517   4.615   7.476   0.849  0.8950  1.8385 -1.6895
10447SOL     OW31518   5.694   5.515   2.127  0.6216  0.0800  0.4360
10447SOL    HW131519   5.707   5.527   2.225  0.6216  1.3130  0.2999
10447SOL    HW231520   5.621   5.448   2.111 -0.3152  0.8475  1.3038
10448SOL     OW31521   4.272   2.987   2.028 -0.0611  0.4344 -0.3049
10448SOL    HW131522   4.353   2.973   2.085  0.2829  1.2119 -0.5843
10448SOL    HW231523   4.197   3.021   2.085 -0.2310 -0.3860 -0.0275
10449SOL     OW31524   4.909   8.652   7.656 -0.0334 -0.0223 -0.6692
10449SOL    HW131525   4.823   8.690   7.689  0.4737 -0.3691  1.1803
10449SOL    HW231526   4.890   8.572   7.599 -0.9727  1.0155 -1.8627
10450SOL     OW31527   0.200   4.787   3.487  0.2273  0.4261  0.1387
10450SOL    HW131528   0.136   4.864   3.497 -1.1654 -0.5693 -0.7221
10450SOL    HW231529   0.190   4.726   3.565  0.6912  0.6558  0.3805
10451SOL     OW31530   0.097   0.701   8.234  0.4778 -0.1971  0.6505
10451SOL    HW131531   0.144   0.776   8.279  1.1018 -0.5873  0.6673
10451SOL    HW231532   0.115   0.616   8.283  1.9882 -0.8103 -0.8598
10452SOL     OW31533   1.863   3.986   8.740  0.7437 -0.1432  0.0745
10452SOL    HW131534   1.946   3.944   8.777  0.8932  0.0217 -0.0709
10452SOL    HW231535   1.786   3.923   8.751  0.6413  0.1650  1.2598
10453SOL     OW31536   0.909   0.703   8.293 -0.2551  0.0511 -0.5034
10453SOL    HW131537   0.944   0.617   8.257 -1.7096 -0.4857 -0.6710
10453SOL    HW231538   0.986   0.764   8.315  0.7663 -1.1231 -0.7603
10454SOL     OW31539   8.673   1.476   1.228  0.4267  0.4793 -0.1583
10454SOL    HW131540   8.592   1.426   1.259  0.3027  1.2379  0.7469
10454SOL    HW231541   8.721   1.420   1.160  0.1223 -0.7441  0.5935
10455SOL     OW31542   4.219   5.730   0.141 -0.1156 -0.4791  0.0101
10455SOL    HW131543   4.279   5.736   0.061 -0.1252  0.2240  0.0418
10455SOL    HW231544   4.133   5.686   0.115 -0.3144  0.1880 -0.5011
10456SOL     OW31545   6.298   5.529   1.111 -0.0002  0.1742  0.2828
10456SOL    HW131546   6.370   5.593   1.141 -0.5741  0.7529  0.4434
10456SOL    HW231547   6.251   5.493   1.191  0.5716 -0.7587  0.2118
10457SOL     OW31548   1.062   4.824   8.757  0.3328  0.0254  0.2465
10457SOL    HW131549   1.081   4.902   8.698  1.5975  0.1806  0.8287
10457SOL    HW231550   0.989   4.847   8.821 -0.2790  0.2281 -0.5051
10458SOL     OW31551   0.081   8.519   2.070  0.8766  0.3773 -0.5073
10458SOL    HW131552   0.063   8.589   2.001 -2.5193  0.3311  0.1706
10458SOL    HW231553   0.051   8.430   2.035 -0.7778  0.3368  0.8835
10459SOL     OW31554   1.890   4.122   3.970 -0.3126 -0.0658  0.0674
10459SOL    HW131555   1.898   4.123   3.870  0.9851  1.4190  0.1524
10459SOL    HW231556   1.905   4.028   4.003  1.7803 -0.1828 -0.9925
10460SOL     OW31557   6.263   3.162   5.729 -0.6533  0.2747  0.7697
10460SOL    HW131558   6.350   3.170   5.679 -1.9073 -0.0851 -1.5874
10460SOL    HW231559   6.273   3.094   5.802  0.6768 -0.7734 -0.3309
10461SOL     OW31560   4.378   4.285   6.899 -0.5038  0.1690  0.2285
10461SOL    HW131561   4.378   4.339   6.983 -0.2779 -0.0622  0.3766
10461SOL    HW231562   4.383   4.188   6.921 -0.8622  0.0861 -0.0425
10462SOL     OW31563   0.930   1.784   6.779  0.2689  0.5242  0.2525
10462SOL    HW131564   0.841   1.827   6.770 -1.0193 -1.7812  1.0658
10462SOL    HW231565   0.965   1.799   6.872  0.2567  0.5849  0.2476
10463SOL     OW31566   3.995   5.634   5.254 -0.2757  0.3491  0.1941
10463SOL    HW131567   3.919   5.601   5.310 -0.3748  1.4053  0.6936
10463SOL    HW231568   3.991   5.734   5.247 -0.2984  0.2518 -1.7504
10464SOL     OW31569   8.466   4.642   5.558  0.0942 -0.2225  0.0234
10464SOL    HW131570   8.508   4.730   5.577  2.2410 -1.3957  1.0497
10464SOL    HW231571   8.526   4.588   5.499 -0.0717 -1.8639  1.3071
10465SOL     OW31572   8.842   8.292   7.070 -0.3430 -0.0685  0.2141
10465SOL    HW131573   8.770   8.233   7.032  0.4867 -1.3289  0.5563
10465SOL    HW231574   8.802   8.351   7.141 -1.0624 -0.6998  0.3488
10466SOL     OW31575   2.910   4.459   8.135 -0.2075 -0.3433 -0.5055
10466SOL    HW131576   2.820   4.493   8.107 -0.0721 -0.0854 -0.6259
10466SOL    HW231577   2.944   4.395   8.066 -0.4119 -0.6455 -0.3332
10467SOL     OW31578   6.010   8.002   7.954  0.1641 -0.4294  0.1003
10467SOL    HW131579   5.995   8.094   7.992  0.2506  0.5548 -2.1165
10467SOL    HW231580   6.107   7.988   7.939  0.0333 -0.2360 -1.0161
10468SOL     OW31581   5.312   3.611   1.081 -0.1049  0.6207  1.0399
10468SOL    HW131582   5.334   3.679   1.150  2.8377  0.6487  0.1917
10468SOL    HW231583   5.384   3.542   1.077 -1.1903 -0.5054 -0.6437
10469SOL     OW31584   5.710   0.129   2.407  0.2643 -0.0127 -0.7012
10469SOL    HW131585   5.642   0.201   2.423  1.3124  0.4264  2.3536
10469SOL    HW231586   5.682   0.075   2.327 -3.1971  0.6726 -0.1365
10470SOL     OW31587   5.038   1.687   5.023 -0.4134 -0.1409  0.0480
10470SOL    HW131588   5.099   1.761   5.051 -0.8440 -0.3387  1.5634
10470SOL    HW231589   5.070   1.600   5.062 -0.9436 -0.4553 -0.2043
10471SOL     OW31590   4.565   0.820   5.247  0.6317  0.0181 -1.1153
10471SOL    HW131591   4.516   0.796   5.331 -0.6158  0.4184 -1.7130
10471SOL    HW231592   4.637   0.752   5.231  2.7295  1.3573  1.6834
10472SOL     OW31593   6.479   4.196   5.416 -0.6174  0.0500  0.1518
10472SOL    HW131594   6.502   4.200   5.514  2.1498  0.8874 -0.4574
10472SOL    HW231595   6.464   4.100   5.390  3.7126 -0.8901  0.4446
10473SOL     OW31596   0.801   4.323   6.084  0.6717 -1.1945 -0.3184
10473SOL    HW131597   0.882   4.268   6.064  1.4803  0.4723 -1.7782
10473SOL    HW231598   0.753   4.282   6.162  2.0182 -3.1176 -0.4138
10474SOL     OW31599   2.649   4.221   0.482 -0.4243 -0.8900 -0.1226
10474SOL    HW131600   2.698   4.144   0.441  0.4867  0.2038 -1.1237
10474SOL    HW231601   2.714   4.282   0.527 -1.1126 -0.5780  0.4611
10475SOL     OW31602   4.436   8.616   1.759 -0.5397 -0.5447 -0.4777
10475SOL    HW131603   4.364   8.678   1.731  0.2388  1.3381  1.3607
10475SOL    HW231604   4.514   8.625   1.697  0.3183  1.8974  0.8081
10476SOL     OW31605   8.412   8.465   4.225 -0.2201 -0.0036 -0.2770
10476SOL    HW131606   8.358   8.545   4.200 -0.8661 -0.0554  0.9009
10476SOL    HW231607   8.365   8.414   4.297  0.8232 -0.7121 -0.0803
10477SOL     OW31608   3.873   6.183   7.770  0.2422 -0.3579  0.1866
10477SOL    HW131609   3.878   6.282   7.781  0.6253  0.0644 -2.8356
10477SOL    HW231610   3.779   6.152   7.786 -0.0877  0.6362  0.2227
10478SOL     OW31611   0.404   5.214   7.095 -0.1037  0.2648 -0.1446
10478SOL    HW131612   0.454   5.156   7.030  0.1910  1.5881 -1.1436
10478SOL    HW231613   0.306   5.210   7.074 -0.0897  0.1026 -0.1853
10479SOL     OW31614   8.440   0.877   8.252 -0.6376 -0.2777 -0.3531
10479SOL    HW131615   8.433   0.923   8.163 -0.3615 -0.8429 -0.6720
10479SOL    HW231616   8.349   0.856   8.287 -0.7470 -0.0522 -0.5032
10480SOL     OW31617   3.140   6.031   3.510 -0.7604 -0.1571  0.0155
10480SOL    HW131618   3.043   6.027   3.535 -1.1508  1.4079 -1.0196
10480SOL    HW231619   3.160   6.121   3.471  0.5983 -1.1794 -1.8149
10481SOL     OW31620   6.247   3.765   0.942  0.1324  0.2441 -0.2526
10481SOL    HW131621   6.307   3.696   0.982 -1.8829 -0.2899  2.0996
10481SOL    HW231622   6.296   3.851   0.933  1.6874 -0.5744  0.0508
10482SOL     OW31623   1.023   3.730   1.086  0.3277  0.0824  0.0999
10482SOL    HW131624   0.942   3.759   1.137 -0.8429  0.6211 -1.9599
10482SOL    HW231625   1.068   3.810   1.047 -0.0571 -0.4534 -1.4938
10483SOL     OW31626   6.945   0.001   1.480  0.2258  0.1216  0.3908
10483SOL    HW131627   6.931   0.071   1.411  0.3525 -1.4029 -1.2370
10483SOL    HW231628   6.892   0.023   1.562 -1.7878  0.8067 -1.0323
10484SOL     OW31629   1.108   8.128   0.732 -0.6372 -0.2173 -0.4071
10484SOL    HW131630   1.189   8.185   0.723 -0.4266 -0.5506 -0.6938
10484SOL    HW231631   1.113   8.075   0.816  1.1260 -2.7693 -1.9692
10485SOL     OW31632   4.168   0.631   0.081 -0.1721  0.2521  0.3379
10485SOL    HW131633   4.093   0.606   0.142 -0.4693  1.8304  0.6668
10485SOL    HW231634   4.142   0.711   0.028  1.2615  0.8024  0.4217
10486SOL     OW31635   2.772   8.208   0.034  0.0769  0.4560  0.0065
10486SOL    HW131636   2.713   8.253  -0.033 -0.1469  1.4713  0.8569
10486SOL    HW231637   2.844   8.157  -0.013 -0.9790 -0.1167 -1.0285
10487SOL     OW31638   6.612   4.764   6.720 -0.0480  0.6208  0.2449
10487SOL    HW131639   6.627   4.800   6.628 -0.4324  2.1956  0.7648
10487SOL    HW231640   6.700   4.755   6.767  0.0672  0.7403  0.0524
10488SOL     OW31641   4.957   0.627   1.713  0.3311  0.2100  0.3698
10488SOL    HW131642   5.046   0.642   1.669  0.1250  2.7691  0.6681
10488SOL    HW231643   4.886   0.675   1.661 -0.6022 -0.3622  1.0908
10489SOL     OW31644   8.673   2.349   0.150 -0.3066  0.2683  0.4071
10489SOL    HW131645   8.723   2.361   0.064 -1.3269  0.8413 -0.1398
10489SOL    HW231646   8.727   2.294   0.214  0.7153  0.3212 -0.3884
10490SOL     OW31647   8.559   5.789   0.464 -0.1390 -0.3753 -0.8228
10490SOL    HW131648   8.485   5.732   0.428 -0.5983  0.3891 -1.1250
10490SOL    HW231649   8.542   5.884   0.439  0.4790 -0.0688 -0.1059
10491SOL     OW31650   5.997   0.624   6.250  0.2992  0.0641 -0.1686
10491SOL    HW131651   5.975   0.615   6.153  0.7981  2.0067 -0.5014
10491SOL    HW231652   5.945   0.556   6.303  0.3034 -1.2627 -1.8047
10492SOL     OW31653   5.147   0.390   7.931  0.4941  0.7123 -0.2193
10492SOL    HW131654   5.181   0.480   7.960  0.1527  1.2237 -1.3450
10492SOL    HW231655   5.061   0.402   7.881  0.1096 -0.3078  0.1708
10493SOL     OW31656   8.192   2.520   7.604  0.0556  0.2267 -0.1627
10493SOL    HW131657   8.131   2.446   7.631  0.8705 -0.0142  1.1130
10493SOL    HW231658   8.201   2.522   7.504 -0.9537 -0.5788 -0.2783
10494SOL     OW31659   4.587   3.700   7.859 -0.5158  0.4819  0.0200
10494SOL    HW131660   4.666   3.747   7.898 -0.3275  0.2099 -0.0309
10494SOL    HW231661   4.608   3.672   7.765 -0.1365 -0.8812  0.4926
10495SOL     OW31662   2.031   8.140   4.149 -0.0981 -0.7785 -0.1388
10495SOL    HW131663   1.960   8.202   4.181 -0.7290 -1.3443 -0.4168
10495SOL    HW231664   2.121   8.176   4.175 -0.3535  0.9368 -1.4331
10496SOL     OW31665   4.847   1.585   4.707  0.4932  0.1283 -0.7701
10496SOL    HW131666   4.780   1.511   4.698  0.2442  0.1261  0.8585
10496SOL    HW231667   4.870   1.620   4.616 -0.9888 -0.5202 -1.4288
10497SOL     OW31668   5.079   2.205   5.302 -0.4282  0.0694  0.6015
10497SOL    HW131669   5.136   2.154   5.237  0.7965 -1.3594  2.6648
10497SOL    HW231670   5.117   2.296   5.316  0.4371 -0.3078  0.7585
10498SOL     OW31671   4.248   2.000   1.927 -0.4299  0.0935 -0.3237
10498SOL    HW131672   4.255   1.902   1.941 -1.1445  0.1109  0.2046
10498SOL    HW231673   4.156   2.023   1.893 -0.6074  0.6714  0.5058
10499SOL     OW31674   8.166   3.936   0.322  0.2364 -0.1657  0.1138
10499SOL    HW131675   8.191   3.851   0.369 -0.1980 -0.1840  0.3102
10499SOL    HW231676   8.219   3.943   0.238  1.1903 -0.0253  0.7060
10500SOL     OW31677   2.878   7.908   3.615 -0.2616  0.3661  0.0362
10500SOL    HW131678   2.801   7.907   3.551  0.1992  0.3496 -0.5235
10500SOL    HW231679   2.920   7.818   3.618 -0.6110  0.2270  0.7691
10501SOL     OW31680   5.981   7.419   4.236 -0.1251 -0.9143 -0.1355
10501SOL    HW131681   6.029   7.380   4.157 -0.2097  0.5641 -0.9446
10501SOL    HW231682   5.909   7.480   4.205 -1.0283 -1.3106  1.1005
10502SOL     OW31683   3.005   1.466   7.661  0.2292  0.4999 -0.2997
10502SOL    HW131684   2.974   1.375   7.688  0.8965  0.2928 -0.2153
10502SOL    HW231685   2.978   1.484   7.566  0.5254  0.0220 -0.4751
10503SOL     OW31686   2.748   5.182   0.452 -0.9173  0.0860  0.6003
10503SOL    HW131687   2.843   5.172   0.482  0.3371  0.7008 -2.6836
10503SOL    HW231688   2.705   5.093   0.447  0.4316 -0.5471 -0.4320
10504SOL     OW31689   8.740   5.681   0.627  0.6263 -0.0687  0.6944
10504SOL    HW131690   8.654   5.725   0.601 -0.5650 -2.0034  1.1621
10504SOL    HW231691   8.816   5.727   0.581 -0.7413  1.0231 -0.5822
10505SOL     OW31692   6.433   2.038   5.321  0.0108 -0.2682 -0.1766
10505SOL    HW131693   6.455   1.944   5.297 -1.7908 -0.4149 -1.4938
10505SOL    HW231694   6.517   2.087   5.346  1.6742 -1.1408 -3.4016
10506SOL     OW31695   3.295   2.991   3.636 -0.1531  0.0262  0.0935
10506SOL    HW131696   3.231   3.008   3.712  0.5071 -0.8768  0.8736
10506SOL    HW231697   3.333   2.899   3.645  1.6885  0.7429 -0.0131
10507SOL     OW31698   8.026   1.893   4.337 -0.3174 -0.0075  0.2113
10507SOL    HW131699   8.092   1.850   4.275  0.5849  0.4017  0.8554
10507SOL    HW231700   8.005   1.830   4.412 -0.1189  0.1155  0.3730
10508SOL     OW31701   3.835   7.408   5.075 -0.4839 -0.0315 -0.3318
10508SOL    HW131702   3.853   7.443   4.983  1.4457 -1.2663 -0.4832
10508SOL    HW231703   3.921   7.381   5.118 -1.5522 -1.4381  1.0394
10509SOL     OW31704   1.014   0.306   4.705 -0.2487 -0.5132  0.0486
10509SOL    HW131705   1.059   0.217   4.712 -0.5525 -0.6168  0.7365
10509SOL    HW231706   0.983   0.319   4.610  1.7870 -0.1367 -0.6068
10510SOL     OW31707   5.085   5.042   3.743  0.2065 -0.1187 -0.0472
10510SOL    HW131708   5.128   4.954   3.729  1.0080  0.3056 -0.3003
10510SOL    HW231709   5.140   5.114   3.700 -0.0235  0.5985  0.8314
10511SOL     OW31710   6.940   5.510   0.097 -0.2209  0.1182 -0.2581
10511SOL    HW131711   7.030   5.553   0.111  0.3582 -1.2724  0.4695
10511SOL    HW231712   6.949   5.411   0.099 -1.7249 -0.0551 -0.6290
10512SOL     OW31713   7.026   3.979   0.335 -0.3951  0.1873 -0.1205
10512SOL    HW131714   7.067   3.947   0.250  0.6236  1.9822 -0.3541
10512SOL    HW231715   6.964   3.909   0.371 -0.4251 -0.8242 -2.0359
10513SOL     OW31716   1.671   7.518   4.950  0.2341  0.2565 -0.0456
10513SOL    HW131717   1.581   7.549   4.923 -0.5773 -0.8636  1.2090
10513SOL    HW231718   1.676   7.514   5.050  2.0185  1.2280 -0.0533
10514SOL     OW31719   1.676   7.531   6.717 -0.3396  0.2594 -0.3590
10514SOL    HW131720   1.592   7.579   6.744 -0.8214 -0.4358 -0.5806
10514SOL    HW231721   1.752   7.595   6.715 -0.9555  0.9984 -0.5955
10515SOL     OW31722   0.846   4.541   1.215 -0.1128 -0.2151 -0.4332
10515SOL    HW131723   0.847   4.589   1.303  1.2775 -0.4608 -0.2844
10515SOL    HW231724   0.755   4.546   1.175 -1.0835 -1.0102  1.5191
10516SOL     OW31725   5.753   4.304   6.049 -0.3506 -0.2578 -0.0488
10516SOL    HW131726   5.693   4.382   6.029 -0.7211 -0.0731  1.6417
10516SOL    HW231727   5.716   4.253   6.126  1.8794  0.1485  1.3754
10517SOL     OW31728   2.461   1.248   2.521 -0.2772 -0.9505 -0.2946
10517SOL    HW131729   2.477   1.153   2.495  0.4190 -0.2082 -2.7633
10517SOL    HW231730   2.542   1.284   2.566  0.4748 -0.7820 -1.7385
10518SOL     OW31731   1.834   8.818   3.419 -0.2509 -0.3172 -0.6504
10518SOL    HW131732   1.915   8.850   3.369  0.0167 -0.8899 -0.5934
10518SOL    HW231733   1.801   8.733   3.378  0.5251 -1.2998  0.6770
10519SOL     OW31734   0.151   5.379   4.370 -0.2299  0.1614 -0.2488
10519SOL    HW131735   0.129   5.476   4.366 -0.6281  0.0426 -1.3658
10519SOL    HW231736   0.235   5.362   4.318 -0.9814 -0.2834 -1.3726
10520SOL     OW31737   1.699   1.769   8.136  0.5034 -0.0757 -0.0197
10520SOL    HW131738   1.717   1.836   8.209  0.8551 -0.5650  0.3478
10520SOL    HW231739   1.605   1.736   8.144  0.3642  0.2829 -0.1329
10521SOL     OW31740   7.141   1.680   1.499  0.1149 -0.2163 -0.2553
10521SOL    HW131741   7.131   1.674   1.400  1.2826 -0.8476 -0.3451
10521SOL    HW231742   7.052   1.666   1.542 -0.7305  1.7144 -1.2519
10522SOL     OW31743   7.652   7.948   2.117  0.0446  0.7690 -0.3612
10522SOL    HW131744   7.748   7.975   2.128 -0.0634  1.0703 -0.1476
10522SOL    HW231745   7.614   7.993   2.036  1.0540 -2.0378 -2.5712
10523SOL     OW31746   8.341   1.973   0.650 -0.2853 -0.4311  0.1243
10523SOL    HW131747   8.272   1.994   0.581  1.2842  2.9663 -0.6396
10523SOL    HW231748   8.405   1.905   0.614  0.0916  0.7530 -1.5609
10524SOL     OW31749   3.621   6.646   8.831 -0.4401  0.0436 -0.0769
10524SOL    HW131750   3.659   6.697   8.754  2.2626 -0.8003  0.5741
10524SOL    HW231751   3.629   6.548   8.814  0.3592 -0.1641  1.2992
10525SOL     OW31752   1.139   0.782   2.723 -1.0654  0.7407  0.1565
10525SOL    HW131753   1.062   0.726   2.691  0.0940 -0.2278 -1.0808
10525SOL    HW231754   1.193   0.729   2.788 -0.7517  0.9659  0.0782
10526SOL     OW31755   7.269   3.006   4.272 -0.0757  0.6558 -0.4392
10526SOL    HW131756   7.278   2.927   4.210 -1.1143 -0.8174  1.2056
10526SOL    HW231757   7.356   3.019   4.320 -0.7100 -1.4640  1.4664
10527SOL     OW31758   8.606   4.463   0.956 -0.3612 -0.0656 -0.0556
10527SOL    HW131759   8.616   4.452   1.055  1.1128  4.0353  0.4632
10527SOL    HW231760   8.679   4.413   0.909  0.0024 -0.6256  1.0720
10528SOL     OW31761   6.257   1.430   2.791  0.5882 -0.2959  0.2101
10528SOL    HW131762   6.221   1.366   2.859  0.8445  1.2224  1.8340
10528SOL    HW231763   6.214   1.412   2.702 -0.6531 -1.5379  1.0200
10529SOL     OW31764   1.762   7.516   0.577  0.2584 -0.3854  0.3931
10529SOL    HW131765   1.760   7.417   0.567 -0.4840 -0.5084  1.5831
10529SOL    HW231766   1.679   7.556   0.540  0.2200 -0.2846  0.5825
10530SOL     OW31767   2.318   7.362   4.003  0.0508  0.8761  0.2902
10530SOL    HW131768   2.364   7.421   3.936  1.2765 -1.2809 -0.8630
10530SOL    HW231769   2.369   7.365   4.089  0.0464  1.5711  0.2745
10531SOL     OW31770   3.312   7.001   4.137 -0.3396 -0.1905 -0.3250
10531SOL    HW131771   3.375   6.962   4.070  0.2222 -0.8345  0.5543
10531SOL    HW231772   3.218   6.993   4.102 -0.6023 -4.6548  0.7337
10532SOL     OW31773   0.806   5.618   8.571  0.4047 -0.4796  0.0675
10532SOL    HW131774   0.810   5.611   8.671  0.2238 -1.9238 -0.0021
10532SOL    HW231775   0.719   5.661   8.545  0.6112  0.2413  0.5335
10533SOL     OW31776   3.569   0.125   8.458 -0.4064  0.1779  0.4182
10533SOL    HW131777   3.593   0.220   8.439 -0.8866  0.8380  2.7760
10533SOL    HW231778   3.481   0.104   8.415 -1.0737  1.3180  1.1562
10534SOL     OW31779   8.653   0.284   0.460  0.2743  0.7919 -0.6267
10534SOL    HW131780   8.635   0.190   0.491 -0.8103  1.2040  0.0480
10534SOL    HW231781   8.677   0.283   0.363 -1.2774 -0.0650 -1.0442
10535SOL     OW31782   7.144   4.789   6.701 -0.0748  0.0306  0.9006
10535SOL    HW131783   7.090   4.718   6.746 -0.3593  0.4730  1.2740
10535SOL    HW231784   7.084   4.846   6.645  0.2869 -0.5571 -0.1224
10536SOL     OW31785   1.361   8.803   7.635 -0.2295 -0.9780 -0.4660
10536SOL    HW131786   1.372   8.704   7.627 -2.0406 -1.4501  1.7319
10536SOL    HW231787   1.265   8.827   7.619 -0.2083  0.1255  0.8627
10537SOL     OW31788   8.125   6.202   5.315 -0.3570 -0.0312 -0.2982
10537SOL    HW131789   8.199   6.235   5.375 -1.8245  2.1063  0.4474
10537SOL    HW231790   8.148   6.223   5.220  1.1667 -1.8341 -0.4011
10538SOL     OW31791   2.933   1.718   1.183  0.3759 -0.1391 -0.1184
10538SOL    HW131792   2.877   1.747   1.106  1.0054 -2.7157 -1.6829
10538SOL    HW231793   2.984   1.796   1.219 -0.0961  1.1903 -2.1879
10539SOL     OW31794   2.546   1.714   8.326  0.0494 -0.2989 -0.4864
10539SOL    HW131795   2.542   1.806   8.366  0.2936  0.2893 -1.7732
10539SOL    HW231796   2.625   1.708   8.266  0.3362 -1.5407 -0.0140
10540SOL     OW31797   6.608   0.843   7.400  0.4012 -0.3331  0.7287
10540SOL    HW131798   6.586   0.782   7.325  0.9730  1.9223 -1.3973
10540SOL    HW231799   6.567   0.808   7.485  0.6438 -3.5377 -0.3272
10541SOL     OW31800   8.603   1.581   4.624 -0.9241  0.1821  0.3280
10541SOL    HW131801   8.580   1.678   4.637 -1.7019  0.0775 -0.2201
10541SOL    HW231802   8.539   1.524   4.676 -0.4404 -0.0422  0.6839
10542SOL     OW31803   7.378   2.216   2.226  0.1300  0.2158  0.2438
10542SOL    HW131804   7.446   2.227   2.298 -0.2824 -0.2865  0.7200
10542SOL    HW231805   7.392   2.128   2.179 -0.8474 -0.3989  1.0682
10543SOL     OW31806   3.944   5.391   0.498 -0.1123  0.8509  0.5850
10543SOL    HW131807   3.922   5.313   0.438 -0.4068  0.3826  1.2925
10543SOL    HW231808   3.937   5.476   0.446  0.3365  0.3998 -0.2359
10544SOL     OW31809   3.873   0.432   8.574  0.4432  0.4283  0.0019
10544SOL    HW131810   3.874   0.522   8.618  0.0603  0.5416 -0.2152
10544SOL    HW231811   3.931   0.434   8.492  1.4152  0.1258  0.6696
10545SOL     OW31812   4.807   4.873   1.311 -0.6839 -0.3356 -0.0980
10545SOL    HW131813   4.782   4.805   1.380 -0.2162 -0.5069 -0.0967
10545SOL    HW231814   4.723   4.914   1.274 -0.9854 -1.0928 -0.2844
10546SOL     OW31815   6.260   7.684   4.241 -0.6962  0.8258  0.7468
10546SOL    HW131816   6.173   7.702   4.195 -0.3113 -0.0423 -0.3714
10546SOL    HW231817   6.307   7.609   4.195 -0.2375 -0.0322  2.5198
10547SOL     OW31818   3.535   2.734   7.046 -0.0471  0.0630  0.3486
10547SOL    HW131819   3.492   2.757   7.134  2.4273 -0.5624  1.8186
10547SOL    HW231820   3.593   2.810   7.016  0.1065 -0.2271 -0.1024
10548SOL     OW31821   4.032   4.475   4.617 -0.7326  0.3570  0.2226
10548SOL    HW131822   3.960   4.427   4.668  0.1889 -0.4700  0.7681
10548SOL    HW231823   3.991   4.520   4.537 -1.6896 -1.0244 -0.0980
10549SOL     OW31824   7.446   5.562   4.637  0.2729 -0.6673  0.3973
10549SOL    HW131825   7.420   5.563   4.541 -0.9227  0.0655  0.6893
10549SOL    HW231826   7.386   5.625   4.688  1.4738 -0.3277  1.4670
10550SOL     OW31827   4.876   8.541   5.252 -0.3413  0.2653  0.0454
10550SOL    HW131828   4.925   8.606   5.193 -0.3604  0.4332  0.2137
10550SOL    HW231829   4.805   8.495   5.198  0.6217 -0.6871 -0.4500
10551SOL     OW31830   6.243   6.067   6.646  0.6544  0.5434  0.0357
10551SOL    HW131831   6.201   6.006   6.579  0.3719 -0.5586  1.1706
10551SOL    HW231832   6.338   6.040   6.661  0.4884  0.2867  0.6436
10552SOL     OW31833   2.066   3.218   8.397  0.4277  0.1105 -0.8994
10552SOL    HW131834   2.005   3.297   8.385  0.4267  0.0884 -1.0335
10552SOL    HW231835   2.149   3.231   8.342  1.5546  1.1801  0.9283
10553SOL     OW31836   0.458   8.199   1.789 -0.4374 -0.0771 -0.4375
10553SOL    HW131837   0.497   8.285   1.755 -0.8629  0.6308  0.7842
10553SOL    HW231838   0.528   8.149   1.840 -0.7725  0.6403  0.7662
10554SOL     OW31839   0.675   1.127   7.600 -0.4928  0.0538 -0.6276
10554SOL    HW131840   0.586   1.087   7.624 -0.7852  0.2575 -1.3551
10554SOL    HW231841   0.748   1.071   7.638 -0.9047 -0.9239 -1.2350
10555SOL     OW31842   5.214   0.347   8.607 -0.2099  0.2779  0.0555
10555SOL    HW131843   5.311   0.371   8.596  0.2227 -1.5267 -0.4693
10555SOL    HW231844   5.203   0.290   8.688 -1.0202  1.2538  0.6573
10556SOL     OW31845   7.087   6.416   8.098  0.1054 -0.1563 -0.0532
10556SOL    HW131846   7.107   6.318   8.094 -1.0209 -0.3784 -3.6416
10556SOL    HW231847   6.998   6.430   8.141 -0.2837 -0.8409 -0.6193
10557SOL     OW31848   7.319   0.245   8.394  0.0443  0.0279  0.3679
10557SOL    HW131849   7.379   0.269   8.318 -1.0240  1.9868  0.0801
10557SOL    HW231850   7.335   0.308   8.470  1.2567 -2.0339  1.9268
10558SOL     OW31851   7.534   1.776   5.022  0.0034 -0.2268  0.3102
10558SOL    HW131852   7.534   1.677   5.007  0.5103 -0.4708  1.8031
10558SOL    HW231853   7.620   1.804   5.064 -0.1395  0.8580 -0.0774
10559SOL     OW31854   2.354   4.411   5.691  0.1163  0.0486 -0.0065
10559SOL    HW131855   2.366   4.480   5.619  0.9537  0.3849  0.4431
10559SOL    HW231856   2.415   4.334   5.673 -0.4620 -0.3632 -0.2374
10560SOL     OW31857   1.103   8.303   5.575  0.8378  0.3373 -0.2365
10560SOL    HW131858   1.094   8.339   5.668 -2.3618  0.5156 -0.4932
10560SOL    HW231859   1.141   8.374   5.516  2.4399  0.3875  0.7825
10561SOL     OW31860   2.227   5.067   2.817 -0.0156  0.2139 -0.2982
10561SOL    HW131861   2.148   5.021   2.776  0.4669  0.4156 -1.4734
10561SOL    HW231862   2.205   5.092   2.911 -1.1624 -0.2155 -0.4367
10562SOL     OW31863   7.690   2.708   8.018  0.3660  0.0904  0.0286
10562SOL    HW131864   7.773   2.661   7.990  0.7681  0.4720  0.5607
10562SOL    HW231865   7.629   2.718   7.939  0.2528 -1.3352 -0.0762
10563SOL     OW31866   8.357   2.570   0.112  0.5783  0.1288 -0.4877
10563SOL    HW131867   8.363   2.474   0.084  1.9087 -0.0176  0.2207
10563SOL    HW231868   8.422   2.624   0.059  2.9680 -0.1140  1.9804
10564SOL     OW31869   8.283   1.335   6.039 -0.8498  0.2045  0.0837
10564SOL    HW131870   8.350   1.408   6.026 -0.9391  0.3277  0.2987
10564SOL    HW231871   8.191   1.375   6.038 -0.8353  0.3704  1.9824
10565SOL     OW31872   4.127   2.190   7.242  0.0569 -0.2484 -0.4137
10565SOL    HW131873   4.180   2.136   7.176 -1.8656 -1.0103 -1.3961
10565SOL    HW231874   4.123   2.285   7.210 -1.9857 -0.8672 -2.2046
10566SOL     OW31875   4.415   1.276   4.031 -0.4084  0.0544  0.5066
10566SOL    HW131876   4.451   1.260   3.938 -2.2117 -1.4621  0.0003
10566SOL    HW231877   4.372   1.366   4.035  0.4627  0.5003  0.1477
10567SOL     OW31878   5.691   2.063   0.334 -0.0231  0.1348 -0.7329
10567SOL    HW131879   5.612   2.004   0.351  1.4851 -1.8512 -0.1580
10567SOL    HW231880   5.705   2.123   0.412  0.6692 -1.5336  0.4870
10568SOL     OW31881   4.205   7.503   2.329  0.0767  0.2332 -0.7839
10568SOL    HW131882   4.126   7.562   2.317  0.3588  1.1532  1.4553
10568SOL    HW231883   4.274   7.549   2.385  1.2830 -1.3638 -0.8670
10569SOL     OW31884   5.823   8.561   3.944  0.0130 -1.1257  0.1526
10569SOL    HW131885   5.889   8.564   3.868 -0.2717 -2.2333 -0.1500
10569SOL    HW231886   5.733   8.536   3.909 -0.7970  1.1220  0.4440
10570SOL     OW31887   4.644   2.043   0.150  0.0273 -0.3658 -0.3009
10570SOL    HW131888   4.548   2.069   0.141  0.2732  0.4646 -0.5824
10570SOL    HW231889   4.663   1.964   0.091 -0.9409 -1.8032  1.2533
10571SOL     OW31890   0.802   0.315   0.630 -0.0623  0.1196  0.2884
10571SOL    HW131891   0.790   0.349   0.537  0.8812 -0.2251  0.0231
10571SOL    HW231892   0.732   0.354   0.689  0.6060  2.0622 -0.1170
10572SOL     OW31893   7.387   6.632   0.011  0.4707 -0.5309 -0.0294
10572SOL    HW131894   7.445   6.629  -0.071  0.9517  1.4268  0.2030
10572SOL    HW231895   7.444   6.645   0.092 -0.2500  2.9120  0.0827
10573SOL     OW31896   8.065   6.899   7.590  0.1797 -0.1681 -0.1563
10573SOL    HW131897   7.966   6.901   7.601 -0.0717  2.1345 -1.8614
10573SOL    HW231898   8.089   6.836   7.516 -0.2925  0.9761 -1.3263
10574SOL     OW31899   8.526   0.212   1.639 -0.1278  0.0694 -0.2889
10574SOL    HW131900   8.566   0.188   1.551 -1.5959 -0.4367 -0.8412
10574SOL    HW231901   8.545   0.139   1.705  2.9970  1.4750  0.5518
10575SOL     OW31902   6.155   5.884   5.721  0.4864 -0.0829  0.4298
10575SOL    HW131903   6.214   5.834   5.784 -0.0676  0.3828  1.3472
10575SOL    HW231904   6.092   5.942   5.773  1.3394  1.8763 -0.5764
10576SOL     OW31905   6.589   1.382   8.753  0.0442  0.0288  0.4890
10576SOL    HW131906   6.585   1.476   8.785 -0.6545 -0.5059  2.0759
10576SOL    HW231907   6.679   1.344   8.774  0.2951  0.3156 -0.0690
10577SOL     OW31908   7.774   4.556   2.480  0.1405 -0.5804  0.0298
10577SOL    HW131909   7.779   4.592   2.386  1.5395 -0.6288  0.0633
10577SOL    HW231910   7.718   4.617   2.535 -1.2524 -0.8970 -0.9784
10578SOL     OW31911   4.840   8.152   1.249  0.0095 -0.0777  0.3019
10578SOL    HW131912   4.742   8.173   1.253  0.4736  2.2902  0.9528
10578SOL    HW231913   4.872   8.161   1.155  0.1325  2.1905  0.5107
10579SOL     OW31914   6.040   4.126   0.703 -0.2107 -0.1898  0.3569
10579SOL    HW131915   6.061   4.030   0.688 -0.0916 -0.1244  0.0898
10579SOL    HW231916   5.966   4.135   0.770 -2.0155 -0.5665 -1.4845
10580SOL     OW31917   3.473   6.902   6.834  0.5014 -0.6781 -0.2750
10580SOL    HW131918   3.404   6.838   6.867  1.3145 -1.4831 -0.1128
10580SOL    HW231919   3.438   6.952   6.755  0.3204 -2.2602 -1.2214
10581SOL     OW31920   2.577   7.049   2.975 -0.2268  0.4336  0.0575
10581SOL    HW131921   2.600   7.117   2.905 -0.9282  0.4758 -0.1334
10581SOL    HW231922   2.535   7.094   3.053  1.7287  0.5707  1.1057
10582SOL     OW31923   0.002   1.640   4.429 -0.3229 -0.4086  0.5239
10582SOL    HW131924   0.007   1.682   4.520 -1.6768  0.4592  0.2287
10582SOL    HW231925  -0.064   1.690   4.373  2.0911  0.5669 -1.7243
10583SOL     OW31926   7.641   8.430   3.661 -0.1588 -0.3599 -0.4845
10583SOL    HW131927   7.592   8.383   3.734  1.0078 -0.7967  0.0420
10583SOL    HW231928   7.728   8.384   3.644  0.2379  0.5964 -1.1593
10584SOL     OW31929   8.473   6.031   8.653 -0.3869  0.1142  0.8986
10584SOL    HW131930   8.483   5.949   8.709  1.7313  1.7717  3.1342
10584SOL    HW231931   8.446   6.108   8.711 -1.1069  1.3004 -0.9198
10585SOL     OW31932   4.318   7.957   8.757  0.1520  0.3201  0.5005
10585SOL    HW131933   4.355   7.869   8.727 -0.3839  0.6995 -1.4056
10585SOL    HW231934   4.268   7.945   8.842 -1.9251 -1.7488 -0.8697
10586SOL     OW31935   1.740   6.679   2.122 -0.3136  0.5686  0.7337
10586SOL    HW131936   1.807   6.634   2.180  1.6996  1.5020 -0.7166
10586SOL    HW231937   1.684   6.611   2.075 -1.1786 -0.2034  2.7969
10587SOL     OW31938   0.880   8.126   1.083  0.5591  0.5946  0.4924
10587SOL    HW131939   0.804   8.064   1.105  0.0849  0.0297 -2.3821
10587SOL    HW231940   0.870   8.211   1.136 -2.6935  0.9441 -0.4575
10588SOL     OW31941   5.409   3.179   1.314  0.0602 -0.0686  0.6845
10588SOL    HW131942   5.479   3.177   1.242 -0.4759 -0.3981  0.1656
10588SOL    HW231943   5.454   3.178   1.404  0.7783  1.7181  0.3909
10589SOL     OW31944   5.138   3.373   3.497  0.4905  0.2277 -0.3511
10589SOL    HW131945   5.091   3.285   3.508  0.1927  0.1366 -2.0167
10589SOL    HW231946   5.234   3.363   3.523 -0.2060  0.2610  2.5224
10590SOL     OW31947   1.232   3.282   6.926 -0.1603  0.4062 -0.4093
10590SOL    HW131948   1.268   3.287   6.833 -0.7867  0.7566 -0.6389
10590SOL    HW231949   1.136   3.310   6.926 -0.2733  0.0309  0.2819
10591SOL     OW31950   1.979   2.638   7.626 -0.3803 -0.1331 -0.4733
10591SOL    HW131951   1.951   2.656   7.720  0.2534  2.7483 -0.7275
10591SOL    HW231952   2.074   2.606   7.624  0.3065  1.7641 -0.1657
10592SOL     OW31953   1.685   6.483   7.372  0.4908  0.3151 -0.0555
10592SOL    HW131954   1.620   6.480   7.448 -0.0344  1.0927 -0.4565
10592SOL    HW231955   1.676   6.400   7.317  0.4414  0.0301  0.3824
10593SOL     OW31956   7.697   4.235   8.405 -0.2296  0.1368  0.3652
10593SOL    HW131957   7.750   4.238   8.489 -0.2539 -0.6675  0.4165
10593SOL    HW231958   7.601   4.258   8.424 -0.8185 -2.5710  1.0597
10594SOL     OW31959   1.076   1.348   8.631 -0.0449  0.4508 -0.2501
10594SOL    HW131960   1.116   1.371   8.543 -1.2499 -0.5733 -1.1037
10594SOL    HW231961   1.060   1.432   8.684 -0.1277  1.1601 -1.3740
10595SOL     OW31962   5.330   8.426   3.267 -0.1087  0.1922  0.0038
10595SOL    HW131963   5.428   8.408   3.271 -0.4969 -2.0582  0.9420
10595SOL    HW231964   5.304   8.488   3.341  0.4119 -0.3141  0.6149
10596SOL     OW31965   7.355   0.991   5.089  0.0726  0.0176  0.0511
10596SOL    HW131966   7.352   0.951   5.181 -2.2640  1.1270  0.5212
10596SOL    HW231967   7.361   0.917   5.022 -0.2476 -0.9229  1.0187
10597SOL     OW31968   5.649   4.111   0.634  0.2180  0.0363 -0.1015
10597SOL    HW131969   5.657   4.205   0.601 -0.2982  0.4660  0.9743
10597SOL    HW231970   5.567   4.102   0.690 -0.7279 -1.4879 -1.5996
10598SOL     OW31971   6.137   4.395   1.319 -0.3603 -0.0717 -0.4741
10598SOL    HW131972   6.199   4.431   1.249 -2.1849 -0.9889 -2.6574
10598SOL    HW231973   6.173   4.308   1.353  1.6042  1.3443  1.3622
10599SOL     OW31974   2.774   7.254   7.460  0.2764 -0.1235  0.3590
10599SOL    HW131975   2.711   7.303   7.519  1.3002 -1.2235  2.4752
10599SOL    HW231976   2.748   7.268   7.364 -2.2433  0.6467  1.0840
10600SOL     OW31977   6.013   3.030   4.339 -0.2318  0.2646  0.1206
10600SOL    HW131978   6.067   3.115   4.337 -0.5580  0.5188  1.1189
10600SOL    HW231979   5.960   3.027   4.424 -1.3250 -0.2717 -0.5546
10601SOL     OW31980   1.443   5.032   1.353 -0.0936 -0.3028 -0.4320
10601SOL    HW131981   1.489   4.967   1.414 -0.3506  1.3837  1.6900
10601SOL    HW231982   1.362   5.067   1.398  0.4714  2.0841 -1.1506
10602SOL     OW31983   4.312   1.007   1.391 -0.0142  0.4273 -0.0013
10602SOL    HW131984   4.250   1.085   1.398 -0.2449  0.2561 -0.1734
10602SOL    HW231985   4.290   0.940   1.462  1.0666  1.1435  1.0606
10603SOL     OW31986   0.345   1.304   2.493 -0.3454  0.2537 -0.0133
10603SOL    HW131987   0.443   1.298   2.478 -0.7143 -2.2693 -2.1579
10603SOL    HW231988   0.316   1.234   2.558 -0.7270  1.1575  0.8203
10604SOL     OW31989   5.113   5.623   8.684  0.3121 -0.5373 -0.1267
10604SOL    HW131990   5.103   5.590   8.590  0.9067  0.4221 -0.5485
10604SOL    HW231991   5.025   5.618   8.731 -0.5285  0.9684 -1.4203
10605SOL     OW31992   3.991   5.149   3.003  0.5966  0.2966  0.1149
10605SOL    HW131993   4.067   5.204   2.968  0.4945 -0.9865 -2.3678
10605SOL    HW231994   4.017   5.108   3.090  1.8421  1.7521  0.4557
10606SOL     OW31995   7.283   2.043   8.063 -0.1748 -0.2743  0.1168
10606SOL    HW131996   7.348   1.973   8.091 -0.8964 -1.7592 -1.6613
10606SOL    HW231997   7.318   2.090   7.982 -1.0370 -0.7436 -0.5538
10607SOL     OW31998   1.038   0.469   4.172 -0.5127 -0.3873 -0.3452
10607SOL    HW131999   0.992   0.544   4.219 -1.7384 -0.1962 -1.7690
10607SOL    HW232000   1.124   0.448   4.218  0.2977  2.4590 -0.4058
10608SOL     OW32001   0.099   3.697   3.780 -0.0562 -0.8919  0.2572
10608SOL    HW132002   0.106   3.792   3.747  1.0213 -1.1316 -0.2641
10608SOL    HW232003   0.031   3.692   3.853 -2.2162 -0.2637 -1.5986
10609SOL     OW32004   8.287   2.873   0.672  0.1806  0.1507  0.4862
10609SOL    HW132005   8.386   2.879   0.657 -0.0660  0.3513 -1.2365
10609SOL    HW232006   8.240   2.937   0.611 -1.0370 -0.0839  1.1410
10610SOL     OW32007   0.033   8.085   7.261 -0.1213  0.5733  0.4127
10610SOL    HW132008   0.051   8.003   7.207 -0.0111  0.4139  0.6851
10610SOL    HW232009   0.022   8.164   7.200  0.3914  0.4683  0.1774
10611SOL     OW32010   0.255   0.497   0.602 -0.2781 -0.1962 -0.5671
10611SOL    HW132011   0.298   0.504   0.692 -0.3435 -1.9899 -0.3494
10611SOL    HW232012   0.162   0.463   0.612 -1.3418  2.3393 -1.1417
10612SOL     OW32013   1.835   5.526   1.781  0.2546 -0.2411  0.1938
10612SOL    HW132014   1.813   5.431   1.805  1.1261 -0.5321 -0.1344
10612SOL    HW232015   1.879   5.528   1.691 -1.7349  0.6977 -0.8233
10613SOL     OW32016   2.946   0.486   6.802 -0.5089  0.1574 -0.3142
10613SOL    HW132017   2.972   0.446   6.890  0.0188 -0.3211 -0.6826
10613SOL    HW232018   2.936   0.585   6.813 -1.1509  0.0157  0.4451
10614SOL     OW32019   2.684   7.247   8.138 -0.3882  0.5268  0.2012
10614SOL    HW132020   2.719   7.321   8.196 -2.2497  1.0297  0.7619
10614SOL    HW232021   2.588   7.265   8.116 -1.8116 -2.9598  2.5967
10615SOL     OW32022   0.020   1.890   8.808 -0.1421 -0.0091 -0.2157
10615SOL    HW132023  -0.079   1.899   8.793  0.4846  3.7726 -3.5881
10615SOL    HW232024   0.052   1.964   8.867  1.1786  1.6504 -2.8739
10616SOL     OW32025   8.266   2.540   6.656 -0.3109  0.1692  0.1190
10616SOL    HW132026   8.219   2.535   6.744 -0.9548  1.4806 -0.1325
10616SOL    HW232027   8.337   2.469   6.652  0.9288  1.1834  2.4128
10617SOL     OW32028   0.303   8.616   6.295  0.0200  0.1287  0.0815
10617SOL    HW132029   0.349   8.703   6.308  0.2206  0.1722 -0.8630
10617SOL    HW232030   0.204   8.629   6.299  0.0572  0.1573  1.3407
10618SOL     OW32031   6.185   4.247   2.939  0.1142 -0.0801  0.7057
10618SOL    HW132032   6.184   4.230   2.841  1.7402 -1.2176  0.8675
10618SOL    HW232033   6.103   4.206   2.981 -1.0483  1.1599 -0.2391
10619SOL     OW32034   2.419   7.717   2.035 -0.0108 -0.1523 -0.2976
10619SOL    HW132035   2.515   7.690   2.024 -0.0923 -0.7535  0.3653
10619SOL    HW232036   2.384   7.750   1.948  1.1922  1.4156 -0.2238
10620SOL     OW32037   5.649   4.865   2.188 -0.2774  0.3162 -0.3098
10620SOL    HW132038   5.589   4.879   2.267 -0.5533 -0.7379 -0.3198
10620SOL    HW232039   5.603   4.806   2.122  1.1134 -1.3172  0.1006
10621SOL     OW32040   0.762   8.551   1.463 -0.2563 -0.5340 -0.3312
10621SOL    HW132041   0.706   8.491   1.405  0.1329 -0.4403 -0.8027
10621SOL    HW232042   0.710   8.633   1.485 -0.2758 -0.4072 -0.8397
10622SOL     OW32043   1.073   1.511   0.363 -0.1091 -0.0132  0.0318
10622SOL    HW132044   1.013   1.432   0.378 -0.8738  0.3902 -0.7991
10622SOL    HW232045   1.107   1.544   0.451 -1.6342  0.1359  0.6022
10623SOL     OW32046   3.062   1.927   5.565  0.3692  0.0815  0.0621
10623SOL    HW132047   3.055   2.012   5.617 -1.4668 -0.0521  0.0891
10623SOL    HW232048   3.076   1.948   5.468  0.6942  0.3942  0.1758
10624SOL     OW32049   7.304   3.867   0.603 -0.3473  0.3413 -0.3961
10624SOL    HW132050   7.296   3.890   0.700  0.3252 -0.8234 -0.0463
10624SOL    HW232051   7.241   3.793   0.581  0.7247 -0.5867 -0.4291
10625SOL     OW32052   5.208   7.599   6.387 -0.3641 -0.2701  0.2920
10625SOL    HW132053   5.159   7.568   6.306 -0.2968  0.1783  0.0754
10625SOL    HW232054   5.234   7.520   6.443  2.1123 -0.8664 -1.5389
10626SOL     OW32055   1.109   6.159   6.685 -0.2260  0.0308  0.2085
10626SOL    HW132056   1.202   6.124   6.691  0.0728  0.9918  1.9329
10626SOL    HW232057   1.102   6.222   6.608  1.0307  1.1958  1.0024
10627SOL     OW32058   5.588   7.091   7.334  0.2409 -0.0859 -0.1698
10627SOL    HW132059   5.505   7.044   7.306  0.0543  1.0197 -1.5535
10627SOL    HW232060   5.566   7.185   7.363  1.0132  0.2744 -0.7077
10628SOL     OW32061   0.519   2.686   6.709  0.0455 -0.3491  0.1568
10628SOL    HW132062   0.497   2.669   6.612 -0.4503  1.3558 -0.0550
10628SOL    HW232063   0.443   2.733   6.752  0.6983 -0.1628  1.1207
10629SOL     OW32064   3.467   1.198   4.333 -0.4690 -0.3541 -0.9134
10629SOL    HW132065   3.399   1.159   4.395 -0.8043  1.7109  0.1265
10629SOL    HW232066   3.421   1.234   4.252 -0.3330 -0.8820 -1.2273
10630SOL     OW32067   6.766   3.531   3.334  0.2989 -0.3025 -0.3959
10630SOL    HW132068   6.864   3.527   3.352  0.3171 -0.8764 -0.5977
10630SOL    HW232069   6.742   3.461   3.267 -0.2321 -0.0977 -0.4207
10631SOL     OW32070   6.192   5.411   0.392  0.1099  0.4721 -0.7064
10631SOL    HW132071   6.108   5.400   0.339 -0.5156  2.2255 -0.1590
10631SOL    HW232072   6.271   5.396   0.333 -0.5433 -1.8118 -1.0948
10632SOL     OW32073   2.989   6.385   8.654  0.0553 -0.0295 -0.2616
10632SOL    HW132074   2.895   6.418   8.663  0.1319 -0.0257  0.6467
10632SOL    HW232075   3.019   6.395   8.559  0.0069  2.3511 -0.0982
10633SOL     OW32076   5.129   4.019   1.220 -0.4599  0.1260 -0.5928
10633SOL    HW132077   5.096   3.927   1.239 -1.0202  0.6922  1.3648
10633SOL    HW232078   5.208   4.039   1.278  0.0813  0.6550 -1.4916
10634SOL     OW32079   7.976   1.648   1.782  0.0473 -0.0474  0.0692
10634SOL    HW132080   8.072   1.640   1.808  0.5119  1.0199 -1.1643
10634SOL    HW232081   7.969   1.707   1.701 -1.5079 -1.2641 -0.7360
10635SOL     OW32082   3.090   4.160   1.649  0.3173 -0.4855 -0.1439
10635SOL    HW132083   3.164   4.226   1.634  0.7178 -1.1084 -1.0390
10635SOL    HW232084   3.126   4.079   1.695 -0.2761  0.0961  1.4180
10636SOL     OW32085   2.594   7.584   4.319  0.3986  0.1304 -0.5846
10636SOL    HW132086   2.539   7.649   4.372 -1.2542 -1.9181  0.3663
10636SOL    HW232087   2.631   7.514   4.380 -0.1962 -1.3787 -1.8661
10637SOL     OW32088   6.388   0.983   5.606  0.2243 -0.4710  0.0396
10637SOL    HW132089   6.313   0.925   5.639 -0.0678  0.6985  1.5214
10637SOL    HW232090   6.418   1.044   5.680  1.3563  0.4106 -1.1100
10638SOL     OW32091   4.100   4.791   4.421  0.3721  1.0260 -0.6094
10638SOL    HW132092   4.163   4.719   4.450 -1.0010 -0.0834 -0.3032
10638SOL    HW232093   4.028   4.752   4.364 -0.5208  2.1047 -0.2531
10639SOL     OW32094   3.675   5.555   7.330 -0.0137 -0.2401  0.5109
10639SOL    HW132095   3.751   5.569   7.394 -0.1110  0.8176  0.4247
10639SOL    HW232096   3.668   5.635   7.270 -1.6095  0.0032  0.9654
10640SOL     OW32097   6.156   7.446   0.595  0.7780 -0.2246  0.0708
10640SOL    HW132098   6.121   7.357   0.567 -0.8169 -0.1251  1.6002
10640SOL    HW232099   6.117   7.517   0.537 -1.9769 -0.0824  1.9450
10641SOL     OW32100   7.741   6.941   6.171 -0.1911 -0.3306  0.4346
10641SOL    HW132101   7.837   6.930   6.146  0.3408  1.1255  1.7181
10641SOL    HW232102   7.728   6.916   6.267 -1.5068 -2.4042 -0.2186
10642SOL     OW32103   3.543   6.878   0.633  0.3275  0.0139 -0.4960
10642SOL    HW132104   3.589   6.838   0.553 -0.5295 -2.3704  0.1020
10642SOL    HW232105   3.611   6.903   0.702  0.9905  0.9529 -1.4526
10643SOL     OW32106   5.954   8.331   1.060  0.2614  0.1611 -0.4209
10643SOL    HW132107   5.873   8.382   1.089  2.0395  1.8791  1.9319
10643SOL    HW232108   6.032   8.393   1.056  1.8059 -1.7299 -1.1652
10644SOL     OW32109   8.708   4.462   8.040  0.1145  0.0017 -0.1677
10644SOL    HW132110   8.614   4.477   8.009  1.0111  2.5731 -1.9688
10644SOL    HW232111   8.733   4.534   8.105  1.8375  1.4686 -2.3138
10645SOL     OW32112   6.196   4.664   4.370  0.4687  0.2857  0.3152
10645SOL    HW132113   6.245   4.693   4.452 -1.0977 -0.1900  1.4797
10645SOL    HW232114   6.137   4.586   4.393 -0.1217  0.2464 -1.2320
10646SOL     OW32115   0.329   1.505   6.146  0.4690  0.4055  0.0480
10646SOL    HW132116   0.319   1.580   6.211  0.3466 -0.5464  1.1680
10646SOL    HW232117   0.290   1.422   6.186  1.4066 -0.4619 -0.7955
10647SOL     OW32118   2.472   3.590   5.769  0.4764  0.6951  0.0224
10647SOL    HW132119   2.559   3.541   5.775 -0.2578 -0.6264  0.2475
10647SOL    HW232120   2.477   3.674   5.823  0.9981 -0.3265  1.6352
10648SOL     OW32121   5.763   5.740   3.080 -0.6598  0.3219  1.0198
10648SOL    HW132122   5.773   5.736   2.981 -2.4281 -1.8086  0.8572
10648SOL    HW232123   5.690   5.804   3.104 -2.3242 -1.3639  0.6813
10649SOL     OW32124   8.245   3.630   2.518  0.5617  0.2810 -0.5055
10649SOL    HW132125   8.273   3.596   2.608  3.4875  0.6858 -1.1536
10649SOL    HW232126   8.304   3.590   2.447 -2.1059 -0.5955 -2.4203
10650SOL     OW32127   3.959   7.329   2.611 -0.0312  0.6269 -0.3144
10650SOL    HW132128   3.936   7.425   2.628 -1.0719  0.6355 -1.6525
10650SOL    HW232129   3.900   7.292   2.539  0.0701 -1.1536  0.4722
10651SOL     OW32130   3.568   0.921   5.655  0.3218 -0.0082  0.1321
10651SOL    HW132131   3.622   0.971   5.587  1.5315 -1.0821  0.2611
10651SOL    HW232132   3.625   0.851   5.697 -1.0604 -0.8799  0.6157
10652SOL     OW32133   7.690   0.527   5.069 -0.3936 -0.1276 -0.3617
10652SOL    HW132134   7.737   0.507   5.155 -1.3078 -0.1818  0.1365
10652SOL    HW232135   7.601   0.570   5.088 -0.1228  0.8993 -1.3172
10653SOL     OW32136   3.313   3.595   7.048  0.0354  0.0976  0.3846
10653SOL    HW132137   3.214   3.590   7.054 -0.1234  0.1439 -1.6855
10653SOL    HW232138   3.353   3.543   7.124 -1.4935  1.9672  2.6367
10654SOL     OW32139   6.852   4.999   0.928  0.0060  0.2126 -0.4465
10654SOL    HW132140   6.821   5.094   0.915  0.3762  0.4570  0.3635
10654SOL    HW232141   6.776   4.937   0.912 -0.3338  0.6687 -0.6349
10655SOL     OW32142   2.459   3.603   7.220 -0.2491  0.2954  0.6536
10655SOL    HW132143   2.390   3.661   7.265  1.0398  1.1532  1.5789
10655SOL    HW232144   2.544   3.607   7.271  1.0252  0.6154 -1.4037
10656SOL     OW32145   4.501   8.844   8.411  0.8643  0.0194 -0.7036
10656SOL    HW132146   4.517   8.918   8.476  0.6796 -1.2663  0.8634
10656SOL    HW232147   4.444   8.774   8.453  0.2459 -0.5910 -2.4753
10657SOL     OW32148   0.824   7.769   3.596 -0.5743 -0.0047  0.2049
10657SOL    HW132149   0.872   7.764   3.508 -1.9157  2.3174 -0.7621
10657SOL    HW232150   0.839   7.684   3.647  2.1202 -0.5172 -1.2448
10658SOL     OW32151   4.802   2.010   2.090  0.2926 -0.3008  0.4530
10658SOL    HW132152   4.756   1.927   2.124  0.9261 -1.3208 -1.0596
10658SOL    HW232153   4.855   1.987   2.008  0.3237  1.6650 -0.1216
10659SOL     OW32154   0.187   5.022   3.790 -0.2677 -0.7931 -0.4511
10659SOL    HW132155   0.278   5.017   3.748 -0.0278 -1.3746  0.1215
10659SOL    HW232156   0.163   5.117   3.805  0.1136 -0.6202 -0.8891
10660SOL     OW32157   1.621   5.388   4.386  0.1517  0.1921  0.3015
10660SOL    HW132158   1.684   5.464   4.399 -1.3928  1.5223  0.2425
10660SOL    HW232159   1.643   5.315   4.452  1.4338  0.8046  0.5827
10661SOL     OW32160   8.181   5.733   7.343 -0.2549 -0.5057 -0.0202
10661SOL    HW132161   8.143   5.794   7.413 -0.1428  0.9799 -1.1974
10661SOL    HW232162   8.109   5.673   7.309 -1.0486  0.7005 -0.5831
10662SOL     OW32163   1.874   6.508   5.242  0.3851 -0.2636 -0.5569
10662SOL    HW132164   1.972   6.486   5.243  0.4900  0.2207 -0.2025
10662SOL    HW232165   1.822   6.425   5.222  0.7794 -0.8333  0.7174
10663SOL     OW32166   1.643   6.336   5.989  0.4205 -0.1756 -0.1764
10663SOL    HW132167   1.559   6.315   6.039  0.8161  0.3970  0.7630
10663SOL    HW232168   1.638   6.430   5.953  0.0829 -0.6231 -1.3635
10664SOL     OW32169   6.142   5.998   4.143  0.4588  0.3387 -0.0645
10664SOL    HW132170   6.224   5.955   4.180  0.3351 -0.4168 -0.6474
10664SOL    HW232171   6.127   6.085   4.189  2.4468  1.2325 -0.9962
10665SOL     OW32172   3.680   6.862   4.648  0.6666 -1.0545 -0.5802
10665SOL    HW132173   3.613   6.842   4.720  0.3961  0.9732 -0.2057
10665SOL    HW232174   3.764   6.898   4.690  1.5981 -2.5152 -1.1257
10666SOL     OW32175   8.147   8.593   6.395  0.5818 -0.2018 -0.2316
10666SOL    HW132176   8.247   8.595   6.404  0.7326 -0.7190 -1.5097
10666SOL    HW232177   8.111   8.514   6.444  0.9680 -0.8491 -0.9598
10667SOL     OW32178   5.177   8.839   1.421 -0.4811 -1.0081  0.0400
10667SOL    HW132179   5.096   8.814   1.368 -0.2311  0.5777 -1.1411
10667SOL    HW232180   5.149   8.890   1.502 -0.7294 -1.7105  0.4102
10668SOL     OW32181   8.792   3.966   3.690 -0.3891  0.1957  0.3088
10668SOL    HW132182   8.719   4.029   3.715 -0.4755  1.2106 -2.1925
10668SOL    HW232183   8.879   4.015   3.686 -0.0413 -0.3900  0.6434
10669SOL     OW32184   5.756   0.299   4.425 -0.2102  0.5858 -0.3701
10669SOL    HW132185   5.808   0.293   4.340  2.3634 -2.5488  1.1833
10669SOL    HW232186   5.794   0.372   4.482 -0.9289  1.6736 -1.2580
10670SOL     OW32187   2.141   3.820   2.255  0.2403  0.3984 -0.4309
10670SOL    HW132188   2.123   3.911   2.293  1.8032  0.4787  0.2270
10670SOL    HW232189   2.122   3.751   2.324 -3.7981 -0.1218 -1.8228
10671SOL     OW32190   1.091   7.552   1.412  0.3614  0.8995 -0.1394
10671SOL    HW132191   1.096   7.584   1.507  1.8844  1.4127 -0.3564
10671SOL    HW232192   1.043   7.464   1.409  0.3854  0.8238  1.1253
10672SOL     OW32193   3.260   0.405   0.358  0.3867  0.7747 -0.1388
10672SOL    HW132194   3.343   0.371   0.313 -1.2991 -1.4551 -1.8606
10672SOL    HW232195   3.196   0.329   0.371 -1.5703  2.4650  0.7598
10673SOL     OW32196   6.731   7.193   0.463 -0.0011  0.3816 -0.2291
10673SOL    HW132197   6.653   7.134   0.442  0.0011  0.2908  0.0161
10673SOL    HW232198   6.732   7.214   0.561  0.3265  0.3162 -0.2168
10674SOL     OW32199   8.505   8.574   0.817 -0.1237 -0.3169  0.3478
10674SOL    HW132200   8.413   8.605   0.793 -0.3699 -0.0700  1.5319
10674SOL    HW232201   8.572   8.621   0.759 -0.6694  0.3750  0.2677
10675SOL     OW32202   0.672   5.925   2.420  0.0123  0.2218 -0.1706
10675SOL    HW132203   0.664   5.916   2.321  2.3266  0.8045 -0.4718
10675SOL    HW232204   0.605   5.992   2.453  0.4826  1.4578 -1.6279
10676SOL     OW32205   1.636   2.884   2.288 -0.5515 -0.2669  0.7625
10676SOL    HW132206   1.619   2.854   2.382  2.5109  0.6252  1.7063
10676SOL    HW232207   1.723   2.933   2.284 -0.9840  0.4343 -2.4289
10677SOL     OW32208   0.975   7.215   1.886 -0.0133  0.3944 -0.2281
10677SOL    HW132209   1.068   7.222   1.920  0.2179 -1.0080 -0.5509
10677SOL    HW232210   0.975   7.176   1.795 -1.0200 -1.4271  0.4998
10678SOL     OW32211   5.794   5.260   7.028  0.0071 -0.0986 -0.2407
10678SOL    HW132212   5.704   5.303   7.031 -0.0834  0.2797 -3.6959
10678SOL    HW232213   5.854   5.312   6.967  2.8279 -0.0341  2.3461
10679SOL     OW32214   0.500   2.756   3.338 -0.1759 -0.0240  0.0347
10679SOL    HW132215   0.541   2.719   3.422 -0.0906 -0.6099 -0.2606
10679SOL    HW232216   0.403   2.774   3.354 -0.1882 -0.2394  0.2295
10680SOL     OW32217   0.130   7.327   0.537 -0.4093  0.1017 -0.2831
10680SOL    HW132218   0.145   7.282   0.625  0.0643 -0.0641 -0.4439
10680SOL    HW232219   0.218   7.345   0.494 -0.6638 -1.2088 -1.4141
10681SOL     OW32220   1.201   6.622   5.334 -0.2317  0.5891 -0.4036
10681SOL    HW132221   1.108   6.633   5.369  0.3220 -1.9362  2.1707
10681SOL    HW232222   1.267   6.658   5.400  0.7378 -1.5625 -0.1175
10682SOL     OW32223   3.022   8.466   6.483  0.0244  0.5265 -0.2151
10682SOL    HW132224   3.120   8.475   6.468  0.1838 -1.3926 -0.5576
10682SOL    HW232225   2.976   8.448   6.396 -0.3822 -0.4551  0.1868
10683SOL     OW32226   4.525   8.558   0.365 -0.2491 -0.2669  0.6366
10683SOL    HW132227   4.571   8.500   0.298 -0.5934 -2.7297  2.3697
10683SOL    HW232228   4.493   8.501   0.441 -1.0464  2.2008  2.2610
10684SOL     OW32229   2.682   8.663   1.399  0.5363 -0.4556  0.1508
10684SOL    HW132230   2.707   8.583   1.454 -3.2846 -1.8697  0.0986
10684SOL    HW232231   2.638   8.731   1.458  0.5060  0.0331 -0.4253
10685SOL     OW32232   5.306   0.760   4.590  0.2132  0.2449  0.1338
10685SOL    HW132233   5.368   0.727   4.519  1.0178  0.4158  0.7421
10685SOL    HW232234   5.223   0.797   4.548  0.7843  0.5749 -0.7261
10686SOL     OW32235   1.318   5.116   5.133 -0.2810 -0.6903  0.1126
10686SOL    HW132236   1.221   5.131   5.113  0.3263  0.4680 -2.2870
10686SOL    HW232237   1.363   5.205   5.146  0.6284 -1.1754  0.3567
10687SOL     OW32238   7.004   4.687   2.452  0.4091  0.5710  0.3949
10687SOL    HW132239   6.947   4.767   2.435 -3.1419 -1.8290 -0.1227
10687SOL    HW232240   7.008   4.668   2.550 -1.8227 -0.5281  0.3336
10688SOL     OW32241   4.357   3.248   5.818 -0.2138 -0.6710 -0.4299
10688SOL    HW132242   4.392   3.211   5.904 -1.2097  1.8509  1.1883
10688SOL    HW232243   4.258   3.237   5.815 -0.5459  1.5675  0.0904
10689SOL     OW32244   6.532   8.628   6.381 -0.5381  0.0288  0.1134
10689SOL    HW132245   6.528   8.576   6.296  2.3379 -0.3330  0.0988
10689SOL    HW232246   6.525   8.726   6.362  2.7452  0.1502 -0.9578
10690SOL     OW32247   8.345   2.323   3.029 -0.3490  0.2027  0.5052
10690SOL    HW132248   8.269   2.343   2.967 -0.8968  0.3136  1.1934
10690SOL    HW232249   8.371   2.407   3.077 -0.7598 -0.1324  1.3280
10691SOL     OW32250   0.690   8.174   5.486  0.7192 -0.2674 -0.2953
10691SOL    HW132251   0.604   8.218   5.461  1.0247  1.7214  1.7986
10691SOL    HW232252   0.672   8.081   5.517 -0.7858  0.3231  0.7091
10692SOL     OW32253   5.688   2.819   8.057  0.3869  0.4380 -0.7472
10692SOL    HW132254   5.628   2.898   8.072 -1.8484 -1.2938  0.0202
10692SOL    HW232255   5.709   2.811   7.959 -2.3195  0.0453 -1.3771
10693SOL     OW32256   3.509   3.852   7.430  0.0838 -0.0513  0.0321
10693SOL    HW132257   3.549   3.810   7.511  0.4120 -0.8753 -0.5389
10693SOL    HW232258   3.525   3.950   7.431 -0.9225  0.1143  1.5294
10694SOL     OW32259   6.779   6.368   5.350 -0.0700 -0.2866 -0.5063
10694SOL    HW132260   6.863   6.354   5.404  0.0249 -1.5701 -0.9563
10694SOL    HW232261   6.731   6.281   5.341 -0.6510  0.1344 -1.5777
10695SOL     OW32262   4.655   4.843   5.950  0.2045  0.2275  0.3180
10695SOL    HW132263   4.742   4.856   5.904  1.0632 -1.0988  1.5050
10695SOL    HW232264   4.589   4.910   5.915  1.5782  1.0468 -0.8237
10696SOL     OW32265   7.536   4.370   0.898 -0.1645 -0.3996 -0.2456
10696SOL    HW132266   7.575   4.370   0.806  0.0455  0.1259 -0.1611
10696SOL    HW232267   7.500   4.461   0.920 -0.9294 -0.7243 -0.1017
10697SOL     OW32268   0.679   4.246   2.035 -0.5171  0.1161  0.2520
10697SOL    HW132269   0.746   4.318   2.051  2.7659 -2.6588  0.0932
10697SOL    HW232270   0.675   4.186   2.114 -0.8440 -1.2667 -0.7744
10698SOL     OW32271   7.815   7.742   1.987  0.0811 -0.0547 -0.0085
10698SOL    HW132272   7.751   7.807   2.027 -0.6500 -2.1455  2.4293
10698SOL    HW232273   7.871   7.701   2.059  2.0832 -0.5410 -1.7373
10699SOL     OW32274   0.956   2.386   4.243  0.4921 -0.6047 -0.0899
10699SOL    HW132275   0.951   2.365   4.340  0.0954 -0.2810 -0.0402
10699SOL    HW232276   0.955   2.485   4.230  0.1656 -0.6531 -0.4418
10700SOL     OW32277   5.213   7.180   6.165 -0.4121  0.7010  0.4896
10700SOL    HW132278   5.173   7.158   6.076 -0.0718  0.8791  0.2911
10700SOL    HW232279   5.164   7.129   6.236  1.9064 -2.7880 -0.1357
10701SOL     OW32280   3.646   2.261   4.544 -0.1172  0.0392 -0.1271
10701SOL    HW132281   3.647   2.161   4.548 -0.3699  0.0535  0.5439
10701SOL    HW232282   3.552   2.293   4.538 -0.3906  0.2999  3.2579
10702SOL     OW32283   8.608   5.696   7.702  0.2394  0.5749 -0.6484
10702SOL    HW132284   8.669   5.769   7.673  0.3821  0.8695  0.3755
10702SOL    HW232285   8.650   5.607   7.681  1.6958  0.7336  1.2766
10703SOL     OW32286   8.077   3.163   5.990 -0.3107  0.3274  0.0194
10703SOL    HW132287   8.003   3.113   5.945 -1.6213  0.0971  2.2300
10703SOL    HW232288   8.120   3.104   6.059  0.1446  1.2944  0.5911
10704SOL     OW32289   4.062   6.296   0.630  0.3039 -0.2512 -0.2379
10704SOL    HW132290   4.109   6.355   0.695 -0.8629  1.4182 -0.8381
10704SOL    HW232291   4.005   6.229   0.679  0.7467 -0.1331  0.4450
10705SOL     OW32292   8.051   1.178   7.043  0.2350 -0.6594  0.2288
10705SOL    HW132293   8.113   1.252   7.068  0.6355 -1.4964  1.8428
10705SOL    HW232294   7.957   1.212   7.046  0.4064 -0.2333  1.0475
10706SOL     OW32295   6.079   5.707   1.461 -0.2644 -0.4613 -0.5514
10706SOL    HW132296   6.157   5.758   1.497 -0.9388 -0.5861  1.2209
10706SOL    HW232297   6.039   5.756   1.384 -0.2025  1.1297  0.3924
10707SOL     OW32298   6.877   8.632   3.126 -0.3025  0.3256  0.2433
10707SOL    HW132299   6.782   8.662   3.118  0.1139  2.0291  1.0707
10707SOL    HW232300   6.936   8.691   3.071  0.2444 -1.0390 -0.6820
10708SOL     OW32301   0.611   6.949   2.448 -0.3584 -0.2995 -0.2059
10708SOL    HW132302   0.629   7.046   2.465  0.3065  0.0707 -2.6571
10708SOL    HW232303   0.698   6.899   2.447 -0.6373 -0.8046  0.3017
10709SOL     OW32304   5.381   6.011   5.998  0.6685  0.5065  0.3131
10709SOL    HW132305   5.471   6.036   6.034  0.2885 -0.4551  2.0357
10709SOL    HW232306   5.334   6.094   5.967  1.7605  1.1418  0.2992
10710SOL     OW32307   0.631   4.510   2.958 -0.1294  0.3473  0.6453
10710SOL    HW132308   0.593   4.479   2.870  0.8763 -0.7214  0.5517
10710SOL    HW232309   0.608   4.606   2.973  2.6050  1.6973 -2.5125
10711SOL     OW32310   1.289   4.137   0.565  0.2262 -0.8651  0.0267
10711SOL    HW132311   1.289   4.105   0.471 -0.8503  0.4269 -0.4371
10711SOL    HW232312   1.371   4.192   0.582 -0.8173  1.1193 -0.9926
10712SOL     OW32313   7.193   3.140   8.543  0.2003  0.8063  0.0113
10712SOL    HW132314   7.213   3.159   8.447 -0.6918  0.3211 -0.2876
10712SOL    HW232315   7.104   3.179   8.567 -0.0587  0.0471  0.3394
10713SOL     OW32316   6.415   1.237   8.182 -0.0540  0.1536  0.3445
10713SOL    HW132317   6.483   1.274   8.246  0.1721  1.3644 -0.5831
10713SOL    HW232318   6.440   1.143   8.159  1.3560  0.6009 -0.0378
10714SOL     OW32319   7.569   6.161   3.923  0.1935 -0.4499  0.2243
10714SOL    HW132320   7.654   6.185   3.876  0.7815 -1.4151  0.7453
10714SOL    HW232321   7.497   6.146   3.856  0.8887 -1.3046 -0.3527
10715SOL     OW32322   3.885   5.218   7.777 -0.2076 -1.0465  0.7858
10715SOL    HW132323   3.855   5.313   7.765  0.5945 -0.8790  0.0488
10715SOL    HW232324   3.869   5.167   7.693  3.1476 -0.5016 -0.3163
10716SOL     OW32325   0.068   6.006   3.447  0.9088  0.0212  0.4901
10716SOL    HW132326   0.125   6.063   3.387  0.7633 -1.1068 -0.7788
10716SOL    HW232327   0.104   6.009   3.540  1.7212  1.0806  0.1609
10717SOL     OW32328   8.645   5.837   6.728  0.1422 -0.0979  0.4932
10717SOL    HW132329   8.717   5.772   6.703  1.0964  1.0697  0.0830
10717SOL    HW232330   8.662   5.869   6.822  0.1639  0.1956  0.3874
10718SOL     OW32331   8.113   7.767   8.445  0.4382  0.1152 -0.1037
10718SOL    HW132332   8.185   7.735   8.384 -0.4870 -0.6699 -0.8384
10718SOL    HW232333   8.099   7.700   8.518 -0.6706 -0.5971 -0.9381
10719SOL     OW32334   6.527   6.891   3.033 -0.1988  0.1382 -0.4056
10719SOL    HW132335   6.479   6.977   3.021 -0.3780 -0.1639 -2.1486
10719SOL    HW232336   6.462   6.816   3.041 -0.0527  0.1467  1.4096
10720SOL     OW32337   7.359   0.099   3.797  0.2656 -0.2176 -0.4647
10720SOL    HW132338   7.358   0.045   3.713  0.8450 -1.4912  0.3165
10720SOL    HW232339   7.451   0.096   3.837 -0.4183 -1.0899  1.1197
10721SOL     OW32340   8.695   0.298   0.198 -0.2430 -0.1958  0.3043
10721SOL    HW132341   8.761   0.370   0.217  1.1560 -1.0602 -1.1248
10721SOL    HW232342   8.625   0.332   0.135  0.5751 -0.1503 -0.5945
10722SOL     OW32343   8.231   1.786   4.168 -0.5562  0.0646 -0.2034
10722SOL    HW132344   8.328   1.789   4.142  0.1033 -1.4111  1.7724
10722SOL    HW232345   8.194   1.695   4.149 -0.9500 -0.0281  0.8929
10723SOL     OW32346   0.335   4.760   8.316  0.8762  0.1641  0.1779
10723SOL    HW132347   0.379   4.737   8.402 -0.8147  0.5914  1.1996
10723SOL    HW232348   0.300   4.854   8.321 -2.1754 -0.8858  0.3437
10724SOL     OW32349   5.397   2.666   1.846  0.0723 -0.3531 -0.7255
10724SOL    HW132350   5.312   2.633   1.806  0.0182  0.5366 -1.3884
10724SOL    HW232351   5.438   2.734   1.785 -0.2764  1.4698  0.9816
10725SOL     OW32352   3.576   2.873   8.350 -0.0011 -0.1300 -0.5621
10725SOL    HW132353   3.625   2.871   8.262 -2.6978  0.3257 -2.1805
10725SOL    HW232354   3.481   2.897   8.334 -0.1387  2.1280  2.7507
10726SOL     OW32355   7.135   7.280   8.183 -0.5151  0.2544 -0.2366
10726SOL    HW132356   7.154   7.372   8.216  0.2038  0.3179 -0.8169
10726SOL    HW232357   7.205   7.217   8.216 -1.5959 -0.3211  1.0829
10727SOL     OW32358   5.250   4.018   4.765  0.2866  0.0821  0.3535
10727SOL    HW132359   5.323   4.084   4.748 -0.3719  0.7179 -0.0373
10727SOL    HW232360   5.281   3.951   4.833  1.1741  0.4289  0.3013
10728SOL     OW32361   1.240   2.205   1.044 -0.0205 -0.4095 -0.1543
10728SOL    HW132362   1.220   2.135   0.976  0.0291  0.9951 -1.6602
10728SOL    HW232363   1.328   2.248   1.024  0.1403 -0.1585  0.9828
10729SOL     OW32364   1.295   3.566   6.444 -0.0977 -0.3358 -0.4259
10729SOL    HW132365   1.313   3.480   6.395 -0.7986 -0.6403 -0.1693
10729SOL    HW232366   1.328   3.557   6.538  1.7403  0.4404 -0.9471
10730SOL     OW32367   8.440   8.648   0.104 -0.1879 -0.0100 -0.1079
10730SOL    HW132368   8.428   8.632   0.006 -0.7986 -0.0262 -0.0328
10730SOL    HW232369   8.536   8.632   0.129  0.0518  0.3687 -0.7714
10731SOL     OW32370   3.039   3.506   3.651 -0.0796  0.0245  0.0804
10731SOL    HW132371   2.945   3.479   3.632 -0.4398  0.5890  1.0133
10731SOL    HW232372   3.042   3.603   3.674  0.6908 -0.0524  0.3256
10732SOL     OW32373   0.375   3.749   1.062  0.0394 -0.0834 -0.2117
10732SOL    HW132374   0.410   3.825   1.007 -0.3744  0.6720  0.5458
10732SOL    HW232375   0.448   3.681   1.074  0.1431 -0.2581 -1.6480
10733SOL     OW32376   8.265   1.467   7.640  0.0710 -0.1547 -0.2593
10733SOL    HW132377   8.291   1.503   7.729 -1.0492  0.4806 -0.1734
10733SOL    HW232378   8.280   1.537   7.570 -0.5512 -0.0975 -0.3353
10734SOL     OW32379   1.304   3.472   3.804 -0.2751 -0.2017 -0.3262
10734SOL    HW132380   1.349   3.467   3.893  0.0962 -0.6479 -0.5366
10734SOL    HW232381   1.211   3.507   3.815 -0.1807 -0.1247  0.2180
10735SOL     OW32382   5.854   8.810   4.463 -0.2972  0.4053 -0.0449
10735SOL    HW132383   5.789   8.760   4.520  0.1602 -0.9040 -0.6375
10735SOL    HW232384   5.886   8.891   4.512 -1.4417  0.4030  0.7333
10736SOL     OW32385   2.886   0.974   8.370  0.1886  0.0447 -0.1061
10736SOL    HW132386   2.966   0.930   8.409  0.3821  1.0835  0.7552
10736SOL    HW232387   2.895   0.981   8.271  0.4445 -1.2203 -0.1762
10737SOL     OW32388   5.377   3.398   4.176 -0.2694  0.2216  0.5846
10737SOL    HW132389   5.406   3.426   4.084  0.4516  0.0272  0.7453
10737SOL    HW232390   5.309   3.325   4.168 -1.8796  1.6803  0.1715
10738SOL     OW32391   8.538   3.162   0.745  0.4831  0.0974 -0.0929
10738SOL    HW132392   8.582   3.108   0.674 -0.2690  2.2088 -2.2927
10738SOL    HW232393   8.452   3.200   0.710 -0.2947  0.6469  2.2063
10739SOL     OW32394   7.565   1.099   6.502  0.4428 -0.4739 -0.4624
10739SOL    HW132395   7.567   1.085   6.403  1.2338 -0.9302 -0.3861
10739SOL    HW232396   7.487   1.049   6.541  0.0059 -0.1256 -0.8708
10740SOL     OW32397   6.068   3.044   8.795 -0.4923  0.2203  0.4565
10740SOL    HW132398   6.008   2.965   8.808  1.3869 -1.1807  0.9504
10740SOL    HW232399   6.108   3.042   8.704  0.4433 -0.0375  0.8640
10741SOL     OW32400   2.728   3.807   0.100 -0.8146 -0.5754 -0.4984
10741SOL    HW132401   2.821   3.793   0.136 -0.0406  1.4569 -1.5467
10741SOL    HW232402   2.661   3.782   0.170  0.5224 -1.8189  0.3793
10742SOL     OW32403   0.887   7.229   5.942 -0.1494 -0.1895  0.2333
10742SOL    HW132404   0.916   7.135   5.925  0.9791 -0.1908  1.9512
10742SOL    HW232405   0.823   7.231   6.018 -0.7457  0.3675 -0.2716
10743SOL     OW32406   4.818   2.222   5.918 -0.0262 -0.1925  0.1736
10743SOL    HW132407   4.903   2.202   5.968 -0.5046 -0.0410  1.0715
10743SOL    HW232408   4.806   2.155   5.845  0.6811 -0.4381  0.2676
10744SOL     OW32409   7.929   6.438   0.847 -0.1209  0.0937  0.0130
10744SOL    HW132410   7.887   6.370   0.906  1.4989 -0.5264  0.4998
10744SOL    HW232411   7.984   6.392   0.777  0.2766  0.8816 -0.2047
10745SOL     OW32412   4.059   0.782   7.518  0.0850  0.2455  0.6626
10745SOL    HW132413   4.062   0.855   7.586  0.2988 -0.2326  1.1740
10745SOL    HW232414   4.065   0.822   7.427 -0.0777  0.8873  0.9232
10746SOL     OW32415   7.546   3.435   6.481  0.3632 -0.4537 -0.4022
10746SOL    HW132416   7.551   3.396   6.573  0.1602 -0.3273 -0.3374
10746SOL    HW232417   7.450   3.444   6.454  0.2800  2.0413  0.4543
10747SOL     OW32418   7.670   6.182   4.768  0.0458  0.1858 -0.5402
10747SOL    HW132419   7.683   6.130   4.853  0.5879  1.5031  0.2144
10747SOL    HW232420   7.689   6.279   4.785  0.3000  0.4605 -2.2097
10748SOL     OW32421   6.624   3.472   8.038  0.3155  0.0354  0.2384
10748SOL    HW132422   6.667   3.552   8.080  1.2108  0.1754 -0.8851
10748SOL    HW232423   6.694   3.404   8.018 -0.3421 -0.7422  0.5311
10749SOL     OW32424   0.094   5.537   2.017  0.6398 -0.0183  0.0995
10749SOL    HW132425   0.184   5.538   2.060  0.7101 -1.7042  0.0785
10749SOL    HW232426   0.023   5.543   2.088  0.7701 -1.0368  0.3354
10750SOL     OW32427   7.867   4.466   3.984 -0.1307  0.4654 -0.1646
10750SOL    HW132428   7.918   4.549   3.966 -2.4479  1.9236 -0.4534
10750SOL    HW232429   7.777   4.472   3.941  0.1399 -2.8565 -1.5001
10751SOL     OW32430   8.300   6.085   1.856  0.4627  0.2444  0.4643
10751SOL    HW132431   8.238   6.164   1.855  1.2232  0.8526 -0.1546
10751SOL    HW232432   8.335   6.069   1.764 -1.3916 -2.2359  0.0973
10752SOL     OW32433   5.214   6.690   4.122 -0.3430 -0.8122  0.0029
10752SOL    HW132434   5.218   6.688   4.222  0.9023  1.5094  0.0740
10752SOL    HW232435   5.125   6.724   4.092  0.3876  1.7477  0.5013
10753SOL     OW32436   0.444   2.655   1.940  0.4756  0.4160 -0.5202
10753SOL    HW132437   0.499   2.599   1.878  2.1601  1.8411 -0.4240
10753SOL    HW232438   0.500   2.732   1.973 -0.6078  0.1667  2.1324
10754SOL     OW32439   5.412   8.039   1.338  0.1867  0.3433  0.2266
10754SOL    HW132440   5.401   8.059   1.436 -0.1935 -1.4261  0.5846
10754SOL    HW232441   5.329   7.994   1.304  0.2055  1.1816 -1.0049
10755SOL     OW32442   8.205   2.589   8.323  0.1973  0.0286 -0.4677
10755SOL    HW132443   8.107   2.609   8.322  0.3835  1.0056 -1.3525
10755SOL    HW232444   8.232   2.552   8.234  0.3143 -2.0680  0.3702
10756SOL     OW32445   6.245   8.100   7.348  0.6466  0.9411 -0.6043
10756SOL    HW132446   6.272   8.164   7.420  2.4999 -0.6516  0.2170
10756SOL    HW232447   6.216   8.014   7.390 -1.3965  1.0502 -1.6941
10757SOL     OW32448   0.752   7.744   5.187 -0.7183  0.6632 -0.2243
10757SOL    HW132449   0.775   7.841   5.200 -0.2684  0.7700 -1.6251
10757SOL    HW232450   0.830   7.697   5.146 -0.8101 -0.3851  0.7603
10758SOL     OW32451   4.607   6.932   1.210  0.7933 -0.5607  0.1359
10758SOL    HW132452   4.666   6.951   1.132  1.6557 -1.4381  0.5635
10758SOL    HW232453   4.608   6.834   1.230  0.5145 -0.3621  1.1942
10759SOL     OW32454   1.314   6.419   2.694 -1.0255 -0.3467  0.0558
10759SOL    HW132455   1.246   6.370   2.748  0.5141 -0.6064  1.8873
10759SOL    HW232456   1.292   6.517   2.694 -1.7217 -0.4981  0.1069
10760SOL     OW32457   8.781   8.362   7.775  0.3450  0.1675  0.0490
10760SOL    HW132458   8.739   8.339   7.863 -0.2813 -0.0952 -0.3068
10760SOL    HW232459   8.732   8.440   7.735  1.0858  0.7441  0.2618
10761SOL     OW32460   8.734   5.294   5.161  0.6018 -0.5888  0.1308
10761SOL    HW132461   8.660   5.360   5.162  1.3500  0.2570  1.7250
10761SOL    HW232462   8.709   5.218   5.100 -0.7523  0.5587 -0.8207
10762SOL     OW32463   7.199   2.506   3.157 -0.3500  0.4427 -0.0059
10762SOL    HW132464   7.139   2.581   3.182 -1.7400 -0.9881  1.0923
10762SOL    HW232465   7.202   2.497   3.057 -1.0729  1.2223 -0.0995
10763SOL     OW32466   2.385   8.344   1.734  0.4213 -0.1316  0.2792
10763SOL    HW132467   2.376   8.260   1.786 -0.7185 -0.6941 -0.7678
10763SOL    HW232468   2.299   8.396   1.740  0.8084  0.5355  0.2014
10764SOL     OW32469   5.932   8.584   6.600 -0.1469 -0.0212  0.3460
10764SOL    HW132470   5.953   8.589   6.698 -0.3830 -2.9193  0.6252
10764SOL    HW232471   6.006   8.538   6.552 -0.3019  0.8468 -0.7744
10765SOL     OW32472   5.326   5.685   3.474 -0.1631 -0.1200 -0.2973
10765SOL    HW132473   5.235   5.726   3.474 -0.6733 -1.1697 -1.6683
10765SOL    HW232474   5.341   5.637   3.387  0.6978 -2.1544  0.8886
10766SOL     OW32475   7.416   8.564   3.957 -0.0341 -0.1595 -0.3851
10766SOL    HW132476   7.515   8.549   3.957  0.3063  1.7304  0.5454
10766SOL    HW232477   7.374   8.507   4.027  0.5979 -0.0113  0.1323
10767SOL     OW32478   8.191   0.879   7.995  0.2803  0.2640 -0.4967
10767SOL    HW132479   8.218   0.803   8.054  1.2566  0.2703 -0.9112
10767SOL    HW232480   8.092   0.891   7.999  0.0085 -1.5075 -1.0105
10768SOL     OW32481   5.730   2.021   7.289 -0.1371  0.3096  0.3375
10768SOL    HW132482   5.812   2.068   7.257  0.2979 -0.7914 -0.2125
10768SOL    HW232483   5.650   2.076   7.266  0.3286  0.6224 -0.6225
10769SOL     OW32484   8.379   7.958   4.387  0.0163  0.3147 -0.8220
10769SOL    HW132485   8.456   7.896   4.401  0.0350  0.4721 -0.1700
10769SOL    HW232486   8.306   7.936   4.452  0.3729  1.5156  0.0208
10770SOL     OW32487   4.071   5.883   2.297  0.0671  0.1421  0.1512
10770SOL    HW132488   4.055   5.897   2.200  0.2685  1.5921  0.2916
10770SOL    HW232489   4.110   5.967   2.336 -1.3401  0.1097  1.7535
10771SOL     OW32490   3.967   4.972   4.927 -0.2875 -0.3789  0.9569
10771SOL    HW132491   3.979   5.067   4.899 -1.0568 -1.0477 -2.0586
10771SOL    HW232492   3.963   4.966   5.027 -0.5367  2.7559  1.2257
10772SOL     OW32493   7.675   3.911   3.837  0.1668 -0.5265 -0.4097
10772SOL    HW132494   7.690   3.924   3.935 -1.0353  1.6280 -0.4348
10772SOL    HW232495   7.580   3.884   3.821 -0.3251  1.4152 -1.0605
10773SOL     OW32496   5.152   0.462   5.703 -0.4666  0.8392  0.4308
10773SOL    HW132497   5.133   0.507   5.616  0.1174  2.1116  0.9349
10773SOL    HW232498   5.069   0.418   5.736 -1.0924  1.6380 -0.0313
10774SOL     OW32499   2.882   1.087   1.224 -0.4320 -0.1474  0.2546
10774SOL    HW132500   2.958   1.059   1.283  0.5337 -0.6646 -1.1689
10774SOL    HW232501   2.885   1.186   1.210  0.8767 -0.3124 -0.9012
10775SOL     OW32502   5.507   0.207   1.269  0.3070  0.5789 -0.5238
10775SOL    HW132503   5.605   0.211   1.250  0.6356  1.3858  1.1633
10775SOL    HW232504   5.478   0.112   1.271  1.3508  0.2532  0.2644
10776SOL     OW32505   6.455   7.858   1.204  0.2700  0.2602 -0.1350
10776SOL    HW132506   6.358   7.874   1.224  0.4153 -0.3170  1.1587
10776SOL    HW232507   6.478   7.763   1.227  1.1979  0.4642 -0.1939
10777SOL     OW32508   8.204   3.497   3.320 -0.1858 -0.6572 -0.0320
10777SOL    HW132509   8.298   3.463   3.329  0.1005  0.0085 -0.4422
10777SOL    HW232510   8.141   3.419   3.318  0.4896 -1.2054 -1.3310
10778SOL     OW32511   1.857   5.273   8.252  0.1962  0.3450  0.1756
10778SOL    HW132512   1.802   5.301   8.330  1.3911  0.7095  0.9146
10778SOL    HW232513   1.820   5.189   8.213 -2.8688  2.2937 -1.4623
10779SOL     OW32514   1.448   5.364   3.243 -0.0506 -0.0749 -0.1396
10779SOL    HW132515   1.438   5.453   3.287 -1.1979 -0.4945  0.4864
10779SOL    HW232516   1.392   5.362   3.160 -0.8711 -0.5493  0.4086
10780SOL     OW32517   3.580   3.787   8.368  0.0761 -0.7809 -0.4915
10780SOL    HW132518   3.481   3.784   8.356  0.0255 -0.1060 -0.2619
10780SOL    HW232519   3.615   3.877   8.343  0.3503 -0.3206  1.3595
10781SOL     OW32520   6.651   4.816   6.469 -0.2238  0.0746 -0.5300
10781SOL    HW132521   6.657   4.911   6.438  0.2506  0.0337 -0.5662
10781SOL    HW232522   6.724   4.763   6.427  1.0899  0.2299  1.4653
10782SOL     OW32523   1.641   6.492   5.558  0.1068 -0.0667 -0.6204
10782SOL    HW132524   1.665   6.537   5.472  3.1455  0.6890  0.4779
10782SOL    HW232525   1.614   6.561   5.626  0.2775 -0.3696 -0.2360
10783SOL     OW32526   6.694   7.633   0.440 -0.3579  0.3996  0.4689
10783SOL    HW132527   6.685   7.710   0.503 -1.4525  0.6833 -0.0106
10783SOL    HW232528   6.656   7.551   0.482 -2.7687  0.9619 -0.4233
10784SOL     OW32529   4.531   4.071   5.523 -0.2134 -0.0593  0.0528
10784SOL    HW132530   4.437   4.105   5.516  0.8111  2.7080 -2.4566
10784SOL    HW232531   4.540   3.987   5.471 -2.0374 -2.7153  3.5666
10785SOL     OW32532   8.663   5.159   4.793  0.3339  0.2574 -0.3809
10785SOL    HW132533   8.748   5.185   4.839  0.1091  0.4432 -0.0666
10785SOL    HW232534   8.683   5.094   4.720  0.8240  0.7606 -0.7038
10786SOL     OW32535   4.735   3.650   3.740 -0.1765 -0.1409  0.1098
10786SOL    HW132536   4.815   3.664   3.681  0.4102  0.8208  1.1032
10786SOL    HW232537   4.657   3.700   3.702 -0.2034 -0.7085 -0.6140
10787SOL     OW32538   5.041   3.798   5.211  0.3246  0.2071 -0.1907
10787SOL    HW132539   5.114   3.863   5.191  0.5209  0.7680  2.0612
10787SOL    HW232540   4.990   3.830   5.292  0.1700 -2.2116  0.7416
10788SOL     OW32541   6.254   6.527   0.080  0.1725  0.2987  0.2255
10788SOL    HW132542   6.219   6.614   0.044 -0.2765  0.0409  0.0247
10788SOL    HW232543   6.181   6.481   0.131  0.0728 -0.4598 -0.5752
10789SOL     OW32544   1.921   4.676   1.960  0.4516  0.4594  0.1710
10789SOL    HW132545   1.981   4.750   1.928  0.1636  0.8104  0.4339
10789SOL    HW232546   1.949   4.648   2.052  2.1148 -1.4480 -0.8386
10790SOL     OW32547   8.618   5.588   3.584 -0.1959 -0.5924  0.5056
10790SOL    HW132548   8.652   5.497   3.606  0.8109  0.2078  2.5329
10790SOL    HW232549   8.621   5.602   3.485 -0.4877 -2.7618  0.1432
10791SOL     OW32550   3.324   5.286   6.914  0.6333  0.0995 -0.2411
10791SOL    HW132551   3.318   5.186   6.922 -2.1226 -0.0100 -2.2802
10791SOL    HW232552   3.420   5.313   6.914  1.4872 -2.5788 -0.0125
10792SOL     OW32553   7.871   4.185   1.199 -0.0424 -0.1149  0.5433
10792SOL    HW132554   7.829   4.190   1.109  3.1452 -1.9095 -1.2343
10792SOL    HW232555   7.857   4.271   1.247 -2.0214  0.8320 -1.5513
10793SOL     OW32556   6.729   1.069   6.371 -0.4386 -0.3583  0.1390
10793SOL    HW132557   6.714   1.089   6.275  0.3090 -0.7576 -0.0673
10793SOL    HW232558   6.670   0.994   6.399 -0.1853 -0.6782 -0.1808
10794SOL     OW32559   1.426   1.293   0.038  0.0825 -0.2233  0.1443
10794SOL    HW132560   1.458   1.332  -0.049  0.4142  0.0445  0.3852
10794SOL    HW232561   1.447   1.195   0.040  1.9635  0.1438  0.7705
10795SOL     OW32562   0.252   5.125   8.010  0.0187  0.4572 -0.3420
10795SOL    HW132563   0.223   5.120   7.914  0.7892  0.2115 -0.5661
10795SOL    HW232564   0.326   5.061   8.026  0.6310  1.2670  0.1586
10796SOL     OW32565   2.322   8.671   1.864 -0.6013  0.4404 -0.2769
10796SOL    HW132566   2.269   8.616   1.800  0.2385  0.2307 -0.7982
10796SOL    HW232567   2.418   8.671   1.837 -0.3327  0.8389  0.6435
10797SOL     OW32568   8.146   1.829   1.333  0.0859 -0.1760 -0.1826
10797SOL    HW132569   8.237   1.859   1.362  0.9016 -1.9482 -0.7748
10797SOL    HW232570   8.150   1.733   1.304 -2.2289 -0.6644  0.9135
10798SOL     OW32571   0.221   3.292   6.193  0.4807 -0.3196  0.1194
10798SOL    HW132572   0.221   3.263   6.288 -0.4463 -0.7994 -0.0165
10798SOL    HW232573   0.274   3.227   6.138 -1.4996 -1.8040 -0.1656
10799SOL     OW32574   5.502   6.644   0.652  0.1832  0.3815  0.4110
10799SOL    HW132575   5.573   6.599   0.705  1.2958  0.7701 -0.7156
10799SOL    HW232576   5.528   6.739   0.635  0.5014 -0.0917 -1.9467
10800SOL     OW32577   1.118   6.945   6.875 -0.1510  0.1393  0.1425
10800SOL    HW132578   1.137   6.847   6.888 -0.2072  0.3419  1.9982
10800SOL    HW232579   1.035   6.969   6.925 -0.9083  0.8935 -1.4114
10801SOL     OW32580   5.882   0.917   2.091 -0.2986 -0.4627  0.4650
10801SOL    HW132581   5.919   1.009   2.099 -0.4802 -0.1927 -1.4761
10801SOL    HW232582   5.821   0.899   2.169  0.3008  0.7671  1.2485
10802SOL     OW32583   6.750   0.776   8.544  0.7507 -0.3610  0.2486
10802SOL    HW132584   6.724   0.872   8.548 -0.1333 -0.3004 -3.3206
10802SOL    HW232585   6.838   0.767   8.496 -0.3625 -1.3471 -1.7568
10803SOL     OW32586   4.345   2.284   2.552 -0.5508 -0.2260 -0.5548
10803SOL    HW132587   4.401   2.207   2.521  0.5000 -0.9195  2.6856
10803SOL    HW232588   4.401   2.346   2.607 -2.5856 -0.1870  1.6422
10804SOL     OW32589   8.849   0.711   7.714  0.0226  0.2885  0.0766
10804SOL    HW132590   8.907   0.717   7.795 -0.2334  1.2171  0.2058
10804SOL    HW232591   8.815   0.618   7.704  0.7070 -0.0240  0.5767
10805SOL     OW32592   7.430   3.970   1.761  0.3080  0.6338  0.1929
10805SOL    HW132593   7.478   3.895   1.716  0.0855  0.0692  0.8670
10805SOL    HW232594   7.472   3.988   1.850 -1.6955 -0.9984  1.5499
10806SOL     OW32595   2.022   6.431   4.334 -0.1513  0.4269 -0.3593
10806SOL    HW132596   2.080   6.507   4.304  2.0463  0.4312  3.2624
10806SOL    HW232597   2.012   6.366   4.259  0.2924  2.8386 -2.6917
10807SOL     OW32598   4.102   3.643   7.994 -0.0910  0.0589 -0.3998
10807SOL    HW132599   4.095   3.630   7.895 -1.5168 -1.6315 -0.1391
10807SOL    HW232600   4.172   3.582   8.031  0.5154  0.7665 -0.3677
10808SOL     OW32601   4.749   7.899   7.510  0.0295  0.4354  0.3100
10808SOL    HW132602   4.782   7.848   7.431  1.7379 -0.0960  1.3087
10808SOL    HW232603   4.821   7.905   7.579 -0.7674  2.5525  1.0515
10809SOL     OW32604   0.616   5.041   6.933  0.2611  0.2229  0.2836
10809SOL    HW132605   0.640   4.944   6.938 -0.4696  0.0435  0.5505
10809SOL    HW232606   0.694   5.094   6.901  0.3316 -0.5866 -0.9114
10810SOL     OW32607   5.339   1.309   3.344 -0.1012 -0.0050 -0.8463
10810SOL    HW132608   5.247   1.344   3.323 -0.2290  0.1523 -0.0310
10810SOL    HW232609   5.347   1.291   3.442  0.4642 -0.8231 -1.0296
10811SOL     OW32610   8.853   8.277   1.950 -0.2839 -0.1877 -0.1128
10811SOL    HW132611   8.803   8.209   2.004 -1.5171  1.0140  0.3291
10811SOL    HW232612   8.839   8.261   1.853  0.6070 -1.3950 -0.0586
10812SOL     OW32613   4.064   7.123   1.494 -0.5327 -0.1903  0.1180
10812SOL    HW132614   4.047   7.071   1.578 -0.1634 -1.7825 -0.7683
10812SOL    HW232615   3.980   7.170   1.467 -1.1456 -1.0733  0.4352
10813SOL     OW32616   4.763   4.828   2.706 -0.1630 -0.0859  0.0619
10813SOL    HW132617   4.747   4.797   2.800  0.8390 -0.9930 -0.0403
10813SOL    HW232618   4.701   4.903   2.684 -1.9580 -1.3258  0.6971
10814SOL     OW32619   0.616   4.292   5.883 -0.0309 -0.0207  0.1692
10814SOL    HW132620   0.529   4.338   5.903 -0.5166 -1.8425  2.6287
10814SOL    HW232621   0.677   4.299   5.962  0.7750 -1.5737 -0.2700
10815SOL     OW32622   6.131   6.914   7.886 -0.0308  0.2492 -0.0597
10815SOL    HW132623   6.227   6.908   7.858 -0.2124  0.0208 -0.6601
10815SOL    HW232624   6.098   7.007   7.873 -0.5611 -0.1762 -2.2046
10816SOL     OW32625   1.155   3.372   1.597  0.0196 -0.6079  0.2251
10816SOL    HW132626   1.198   3.346   1.683  0.4653  0.0477  0.2070
10816SOL    HW232627   1.202   3.451   1.558 -1.7045  0.7006  0.6293
10817SOL     OW32628   1.942   6.740   5.405  0.1808 -0.2225 -0.2265
10817SOL    HW132629   1.957   6.799   5.325 -1.8783 -0.5005 -0.8872
10817SOL    HW232630   1.929   6.645   5.374  0.2655 -0.4781  0.5213
10818SOL     OW32631   1.641   2.126   0.173  0.7198  0.0944  0.0368
10818SOL    HW132632   1.595   2.214   0.163 -0.5329 -0.5585 -0.1157
10818SOL    HW232633   1.678   2.097   0.084 -0.6321 -0.4596 -0.3666
10819SOL     OW32634   0.873   2.897   5.124  0.1052 -0.1147 -0.2485
10819SOL    HW132635   0.962   2.906   5.081 -0.6057  1.6517 -1.4529
10819SOL    HW232636   0.862   2.969   5.193 -0.2643 -0.5217  0.1220
10820SOL     OW32637   3.884   8.480   3.377 -0.1422 -0.0389  0.1680
10820SOL    HW132638   3.961   8.429   3.414  0.3888  1.9787  2.0074
10820SOL    HW232639   3.801   8.458   3.429 -0.6176 -1.2894 -1.0390
10821SOL     OW32640   5.199   6.522   8.709  0.0961 -0.5354  0.5341
10821SOL    HW132641   5.246   6.522   8.798 -0.6118 -1.7541  0.9294
10821SOL    HW232642   5.194   6.615   8.674  0.8665 -0.1069  1.5180
10822SOL     OW32643   8.625   4.371   1.874  0.4727 -0.5421  0.5717
10822SOL    HW132644   8.720   4.375   1.844  0.0973 -0.2008 -0.6078
10822SOL    HW232645   8.592   4.463   1.893  1.0359 -0.7935  3.2412
10823SOL     OW32646   4.220   8.364   6.889 -0.2802 -0.5085  0.1959
10823SOL    HW132647   4.199   8.437   6.954 -1.4382  0.5831 -1.3278
10823SOL    HW232648   4.151   8.292   6.896  0.4566 -1.1383  1.1991
10824SOL     OW32649   0.315   6.205   7.179 -0.0926 -0.2614  0.4433
10824SOL    HW132650   0.337   6.127   7.121  0.9037  1.4460 -1.6098
10824SOL    HW232651   0.397   6.232   7.230 -0.3495 -0.3661  0.9147
10825SOL     OW32652   8.814   1.055   7.093  0.4443 -0.3138  0.3017
10825SOL    HW132653   8.850   0.962   7.103  0.8281 -0.5962 -2.7622
10825SOL    HW232654   8.715   1.052   7.085  0.3811 -0.3376  0.9998
10826SOL     OW32655   3.422   2.765   3.737  0.0558  0.0029  0.1218
10826SOL    HW132656   3.485   2.760   3.659 -1.4515 -1.6112 -1.0812
10826SOL    HW232657   3.471   2.744   3.821  0.9541 -2.3194 -0.9081
10827SOL     OW32658   3.119   7.464   3.748 -0.5315 -0.0343  0.2811
10827SOL    HW132659   3.060   7.388   3.720 -0.0809 -0.6002  0.8454
10827SOL    HW232660   3.130   7.463   3.847 -0.7441  0.9400  0.3268
10828SOL     OW32661   5.451   5.694   5.305  0.0445 -0.1228 -0.2268
10828SOL    HW132662   5.386   5.690   5.229 -0.0178  0.2459 -0.1969
10828SOL    HW232663   5.400   5.698   5.391  0.1183 -1.0437 -0.1367
10829SOL     OW32664   6.543   2.019   1.488 -0.3341 -0.2038 -0.5446
10829SOL    HW132665   6.474   2.002   1.417 -1.2329 -0.3234  0.3332
10829SOL    HW232666   6.560   2.117   1.494 -0.0248 -0.2164 -1.1275
10830SOL     OW32667   4.878   1.147   4.478 -0.5039 -0.4529 -0.1513
10830SOL    HW132668   4.807   1.216   4.466 -1.0577 -1.0154 -0.1699
10830SOL    HW232669   4.956   1.168   4.418 -1.0976 -0.4101 -0.9260
10831SOL     OW32670   1.902   7.086   4.586 -0.0309 -0.3673 -0.5546
10831SOL    HW132671   1.845   7.004   4.578  0.5254 -0.7127 -1.0697
10831SOL    HW232672   1.997   7.060   4.605  0.3328  0.0994 -1.6231
10832SOL     OW32673   1.758   1.857   1.696  0.5215  0.3573  0.2811
10832SOL    HW132674   1.803   1.773   1.725  0.4185  0.0550 -0.3977
10832SOL    HW232675   1.753   1.859   1.596  0.1990  1.0010  0.3026
10833SOL     OW32676   4.701   3.387   5.700 -0.3660 -0.1447  0.3028
10833SOL    HW132677   4.715   3.460   5.766  1.2052 -2.2409  2.4848
10833SOL    HW232678   4.784   3.375   5.645 -0.1630 -1.0080  0.7769
10834SOL     OW32679   7.305   4.245   3.477  0.6915  0.3319 -0.0844
10834SOL    HW132680   7.259   4.199   3.401 -0.1116  0.7968  0.1167
10834SOL    HW232681   7.375   4.306   3.440 -1.1117  2.1794 -0.6192
10835SOL     OW32682   1.871   2.910   4.673 -0.4568  0.6960 -0.8166
10835SOL    HW132683   1.906   2.834   4.619 -0.0644 -0.2348  0.6773
10835SOL    HW232684   1.945   2.974   4.693 -0.4356  0.6510 -0.7518
10836SOL     OW32685   6.684   0.523   8.858 -0.2442 -0.2663 -0.1675
10836SOL    HW132686   6.681   0.436   8.908  0.1974 -0.5248 -0.5789
10836SOL    HW232687   6.754   0.582   8.898 -1.4529  0.4492  0.9683
10837SOL     OW32688   1.334   5.130   7.219  0.3204  0.2632  0.2403
10837SOL    HW132689   1.433   5.141   7.208  0.4725 -0.6185  0.6621
10837SOL    HW232690   1.288   5.153   7.133  0.8689  0.8708  0.0991
10838SOL     OW32691   5.557   1.603   2.741 -0.1390  0.3167 -0.7578
10838SOL    HW132692   5.621   1.585   2.666 -1.1213 -1.3161 -1.2550
10838SOL    HW232693   5.594   1.565   2.826 -0.2662 -0.2894 -0.9703
10839SOL     OW32694   2.374   1.121   3.709 -0.0997 -0.7575 -0.2970
10839SOL    HW132695   2.446   1.170   3.660  0.0323 -1.4957 -0.8732
10839SOL    HW232696   2.396   1.118   3.806  0.3050 -0.3977 -0.3742
10840SOL     OW32697   1.576   2.724   2.875 -0.0638  0.2043 -0.2185
10840SOL    HW132698   1.515   2.797   2.845 -1.1876 -0.8373 -0.5580
10840SOL    HW232699   1.562   2.708   2.973  0.5924  0.8145 -0.0208
10841SOL     OW32700   5.976   6.500   3.818 -0.1451 -0.4991 -0.1957
10841SOL    HW132701   5.970   6.508   3.718 -0.5623 -2.7169 -0.4074
10841SOL    HW232702   5.887   6.470   3.854 -0.2046  0.9577  0.9523
10842SOL     OW32703   8.140   3.257   5.058  0.2836 -0.3737 -0.5851
10842SOL    HW132704   8.114   3.263   4.961  3.1805  1.3076 -1.3653
10842SOL    HW232705   8.133   3.347   5.100 -0.5507 -1.0131  0.7226
10843SOL     OW32706   5.874   6.687   3.259  0.4017  0.0508 -0.6370
10843SOL    HW132707   5.839   6.726   3.345  0.6570  1.0667 -0.9790
10843SOL    HW232708   5.801   6.637   3.213 -0.5640  1.8865 -1.2012
10844SOL     OW32709   0.644   1.453   3.943  0.2101 -0.0867 -0.0216
10844SOL    HW132710   0.719   1.390   3.963  0.6548 -0.2264 -1.9564
10844SOL    HW232711   0.570   1.403   3.898 -0.9276  0.1243  1.5424
10845SOL     OW32712   7.109   5.075   3.944 -0.0151  0.1583  0.3930
10845SOL    HW132713   7.050   5.074   4.025 -0.8073 -0.3687 -0.1790
10845SOL    HW232714   7.167   4.993   3.943  0.0831  0.2261  0.4857
10846SOL     OW32715   6.779   7.807   3.064 -0.2026  0.1860  0.0709
10846SOL    HW132716   6.787   7.711   3.037 -1.8668 -0.1385  0.6357
10846SOL    HW232717   6.837   7.824   3.144  1.4092  0.0905 -1.0503
10847SOL     OW32718   5.745   6.883   1.196  0.0362 -0.6472 -0.2034
10847SOL    HW132719   5.686   6.814   1.239  1.9641 -1.0751  1.9958
10847SOL    HW232720   5.817   6.908   1.260  0.4498  2.1433 -1.6273
10848SOL     OW32721   7.042   7.140   1.845 -0.4809 -0.0389  0.9212
10848SOL    HW132722   7.008   7.139   1.751  0.2437 -0.2754  0.6548
10848SOL    HW232723   7.127   7.192   1.849 -1.2589  1.2069  1.7267
10849SOL     OW32724   4.404   1.862   6.292 -0.4097  0.3197  0.4562
10849SOL    HW132725   4.331   1.879   6.225 -1.3168 -0.8120  1.1176
10849SOL    HW232726   4.384   1.778   6.342  1.7241 -0.4060  0.1841
10850SOL     OW32727   7.039   1.857   7.881 -0.4825 -0.3071 -0.5007
10850SOL    HW132728   7.067   1.941   7.835 -0.9993  0.2131  0.1128
10850SOL    HW232729   6.941   1.843   7.868 -0.3241 -1.0478 -0.9521
10851SOL     OW32730   6.061   8.370   3.727  0.1632  0.2582 -0.2262
10851SOL    HW132731   6.065   8.323   3.815  0.4234  1.1837  0.2617
10851SOL    HW232732   6.133   8.334   3.667  1.6510  1.3789  0.8297
10852SOL     OW32733   0.042   4.406   1.802  0.0130 -0.0557 -0.3230
10852SOL    HW132734   0.127   4.353   1.802 -0.3946 -0.7329  0.2114
10852SOL    HW232735   0.046   4.475   1.874  0.0032 -0.2797 -0.1052
10853SOL     OW32736   0.737   2.430   1.345  0.5174 -0.0498 -0.8102
10853SOL    HW132737   0.651   2.450   1.298  0.7752  2.1160 -0.4549
10853SOL    HW232738   0.758   2.504   1.409  1.5234 -1.6425  0.7985
10854SOL     OW32739   3.351   2.134   6.406 -0.2945  0.2234 -0.1488
10854SOL    HW132740   3.337   2.129   6.307  2.3645 -1.5514 -0.5448
10854SOL    HW232741   3.412   2.060   6.435 -0.1365  1.3356  2.6799
10855SOL     OW32742   3.020   0.996   5.784  0.1436 -0.2841  0.0631
10855SOL    HW132743   3.073   0.945   5.716  0.2583 -0.2206  0.1038
10855SOL    HW232744   3.078   1.067   5.825 -0.3136  0.5814 -0.7558
10856SOL     OW32745   5.572   2.765   5.606 -0.5343  0.3088 -0.1325
10856SOL    HW132746   5.615   2.850   5.573 -1.0498  1.3703  1.7795
10856SOL    HW232747   5.619   2.734   5.688 -1.9086  0.1546  0.6216
10857SOL     OW32748   7.696   8.544   3.976  0.5769  0.1229  0.4612
10857SOL    HW132749   7.713   8.538   4.074  0.3052  2.2634  0.6986
10857SOL    HW232750   7.783   8.560   3.928  0.8046 -1.6202  0.2468
10858SOL     OW32751   4.685   2.779   6.517 -0.8073  0.3396 -0.3467
10858SOL    HW132752   4.664   2.853   6.453  0.9478 -1.3701 -3.0952
10858SOL    HW232753   4.782   2.782   6.540 -0.6139 -1.3168 -0.8585
10859SOL     OW32754   8.318   0.880   0.154  0.1085 -0.2430  0.0084
10859SOL    HW132755   8.305   0.964   0.206 -0.6700 -0.1289 -0.3675
10859SOL    HW232756   8.338   0.804   0.216 -1.6383 -0.2793  0.5633
10860SOL     OW32757   4.043   0.510   6.794  0.2066  0.0736 -0.4868
10860SOL    HW132758   4.111   0.447   6.756  0.8701  0.8448 -0.6122
10860SOL    HW232759   4.053   0.513   6.894  1.8187  1.7808 -0.6547
10861SOL     OW32760   3.939   6.539   3.873  0.2553  0.3529  0.6641
10861SOL    HW132761   3.905   6.517   3.781 -0.9868  0.7693  1.0092
10861SOL    HW232762   3.924   6.636   3.891 -0.2023  0.1193  1.5817
10862SOL     OW32763   7.479   8.101   7.436  0.3429  0.4746 -0.2209
10862SOL    HW132764   7.478   8.127   7.339  1.4360  2.0403  0.1516
10862SOL    HW232765   7.556   8.146   7.482 -0.9999  0.9610  1.6889
10863SOL     OW32766   4.949   0.913   0.883  0.0202  0.2362  0.0015
10863SOL    HW132767   4.881   0.902   0.956  0.3278 -0.6794  0.1592
10863SOL    HW232768   5.016   0.839   0.888  0.3055  0.4167 -0.9385
10864SOL     OW32769   6.856   2.753   4.688 -0.3352 -0.2651 -0.0725
10864SOL    HW132770   6.930   2.731   4.624 -0.3384 -0.3215 -0.0569
10864SOL    HW232771   6.798   2.824   4.649 -0.4364 -0.4186 -0.2054
10865SOL     OW32772   4.016   3.817   5.635  0.4238 -0.6255  0.7220
10865SOL    HW132773   4.093   3.860   5.681  0.8511 -0.8191  0.1955
10865SOL    HW232774   3.932   3.867   5.657  0.7806 -0.0598  0.8245
10866SOL     OW32775   5.916   5.523   1.055 -0.1395  0.2658  0.6667
10866SOL    HW132776   5.996   5.569   1.017  0.2613 -0.8966  0.0518
10866SOL    HW232777   5.863   5.483   0.980  1.0401 -2.7005  1.2795
10867SOL     OW32778   7.075   6.661   2.078  0.3115 -0.0290  0.7267
10867SOL    HW132779   7.061   6.727   2.004  1.3680 -0.6889 -0.0918
10867SOL    HW232780   7.043   6.700   2.164  0.3937  1.3277  0.1632
10868SOL     OW32781   7.956   6.560   0.504 -0.0045  0.2291 -0.4468
10868SOL    HW132782   7.920   6.621   0.574  2.1528  0.3402  0.6221
10868SOL    HW232783   8.038   6.514   0.538 -0.4274 -1.7951 -1.9333
10869SOL     OW32784   1.935   6.862   4.041 -0.3374  0.0898 -0.2533
10869SOL    HW132785   1.981   6.950   4.039  0.4148 -0.2615  0.9017
10869SOL    HW232786   1.902   6.844   4.133  0.7696 -1.4648 -0.1294
10870SOL     OW32787   8.751   3.601   6.074  0.2752  0.2845  0.0928
10870SOL    HW132788   8.704   3.657   6.006 -0.5067  0.6523  0.9119
10870SOL    HW232789   8.799   3.526   6.028 -1.8710 -0.6580 -0.7406
10871SOL     OW32790   0.343   2.253   0.543 -0.3984 -0.2720  0.0295
10871SOL    HW132791   0.271   2.195   0.581  0.7788 -1.8480 -0.0752
10871SOL    HW232792   0.387   2.304   0.616 -0.2770 -0.8480  0.3633
10872SOL     OW32793   4.317   8.635   8.503  0.5610  0.0047 -0.0248
10872SOL    HW132794   4.337   8.539   8.484  1.5743  0.2368 -0.2198
10872SOL    HW232795   4.250   8.642   8.577  0.4930 -0.8419  0.0014
10873SOL     OW32796   1.909   0.290   5.860 -0.3064 -0.0016  0.7438
10873SOL    HW132797   1.834   0.250   5.807  0.5359 -2.2428  1.1300
10873SOL    HW232798   1.944   0.223   5.924  1.9816  1.0046  0.6482
10874SOL     OW32799   0.327   1.217   3.960 -0.5706  0.0979  0.0961
10874SOL    HW132800   0.368   1.240   3.872  0.8224 -0.9797  0.4266
10874SOL    HW232801   0.227   1.222   3.952 -0.5298 -0.9788 -1.8469
10875SOL     OW32802   1.312   1.536   6.875  0.5011  0.3118  0.2440
10875SOL    HW132803   1.324   1.482   6.792 -1.1441 -0.5559  0.5347
10875SOL    HW232804   1.389   1.599   6.885  0.3217  1.0539 -2.3682
10876SOL     OW32805   7.305   4.813   4.406  0.4385 -0.2170 -0.0465
10876SOL    HW132806   7.353   4.849   4.326  2.5487 -0.5307  1.0242
10876SOL    HW232807   7.229   4.874   4.430  0.7282  0.6838 -1.3620
10877SOL     OW32808   8.437   3.319   2.905  0.8428 -0.0237 -0.1149
10877SOL    HW132809   8.497   3.390   2.942  1.1185  0.4074 -1.3286
10877SOL    HW232810   8.492   3.255   2.850  0.5066 -0.8502  0.4885
10878SOL     OW32811   8.836   8.500   4.439  0.6232  0.1200  0.0371
10878SOL    HW132812   8.758   8.556   4.412  0.4346 -0.8362 -1.4815
10878SOL    HW232813   8.909   8.559   4.474 -0.1523  1.1627 -0.0518
10879SOL     OW32814   3.807   2.122   6.149  0.2058  0.1064 -0.1309
10879SOL    HW132815   3.882   2.059   6.129 -1.8744 -1.8717 -2.2371
10879SOL    HW232816   3.760   2.147   6.065 -0.7627  2.3538  0.9785
10880SOL     OW32817   7.276   7.967   4.939  0.3722  0.0154 -0.9619
10880SOL    HW132818   7.186   7.957   4.897 -0.5014 -0.7196  0.9830
10880SOL    HW232819   7.266   7.988   5.036  2.2941 -1.4410 -0.3853
10881SOL     OW32820   7.916   6.307   7.146 -0.1727  0.2870 -0.1597
10881SOL    HW132821   7.864   6.352   7.218 -2.5031 -0.8224 -1.0635
10881SOL    HW232822   7.862   6.233   7.106  2.0588 -0.8494 -1.2959
10882SOL     OW32823   4.693   7.903   8.211 -0.6691 -0.0911  0.3106
10882SOL    HW132824   4.681   8.002   8.217 -3.0545 -0.4006  1.8494
10882SOL    HW232825   4.718   7.867   8.302 -1.0407 -1.0387  0.0476
10883SOL     OW32826   5.697   6.570   5.609 -0.0559 -0.0657  0.6316
10883SOL    HW132827   5.696   6.653   5.666 -1.1897  0.5226 -0.2047
10883SOL    HW232828   5.632   6.504   5.646 -0.3630  0.0832  0.3624
10884SOL     OW32829   1.916   4.893   8.372  0.1375 -0.6239 -0.3449
10884SOL    HW132830   1.996   4.835   8.357  1.4712  1.7754 -4.0613
10884SOL    HW232831   1.934   4.958   8.446  1.6728 -0.1654 -1.0873
10885SOL     OW32832   5.980   1.912   4.669  0.0315 -0.5881  0.6072
10885SOL    HW132833   6.031   1.838   4.713  0.3615 -0.5408  0.3114
10885SOL    HW232834   5.885   1.883   4.653  0.4791 -1.4389 -0.6806
10886SOL     OW32835   2.821   2.020   3.169  0.0165  0.3544 -0.2455
10886SOL    HW132836   2.903   2.036   3.114  0.2964 -1.3006 -0.3441
10886SOL    HW232837   2.742   2.007   3.109  0.5667 -2.8947 -0.4354
10887SOL     OW32838   1.354   2.067   7.145 -1.2008  0.1429 -0.2745
10887SOL    HW132839   1.342   2.011   7.063 -0.6577  1.6435 -1.4155
10887SOL    HW232840   1.266   2.077   7.192 -1.7075  0.0679 -1.1993
10888SOL     OW32841   5.783   7.033   3.105 -0.7092 -0.2716 -0.6516
10888SOL    HW132842   5.847   7.077   3.042  0.7533 -1.3808 -0.0127
10888SOL    HW232843   5.740   7.103   3.163  1.6159  0.3832  0.4107
10889SOL     OW32844   2.034   6.377   2.839 -0.0911  0.1115  0.1063
10889SOL    HW132845   2.076   6.433   2.768  0.9480  1.6705  1.8720
10889SOL    HW232846   1.990   6.298   2.796 -1.1266  1.9177 -2.4283
10890SOL     OW32847   4.355   4.577   5.234 -0.5800  0.4869 -0.2897
10890SOL    HW132848   4.256   4.586   5.245 -0.6340 -0.1132 -0.2781
10890SOL    HW232849   4.379   4.585   5.137 -0.4984  1.9292 -0.1727
10891SOL     OW32850   2.096   5.203   4.796 -0.2728  0.2863  0.4186
10891SOL    HW132851   2.166   5.153   4.847  0.0324  0.0992 -0.1649
10891SOL    HW232852   2.085   5.161   4.706 -0.6580  0.7252  0.2577
10892SOL     OW32853   6.174   4.310   5.057  0.2682  0.0972 -0.4413
10892SOL    HW132854   6.250   4.286   4.997 -1.4262 -3.6065 -1.4399
10892SOL    HW232855   6.196   4.284   5.151  0.8895  0.8128 -0.3777
10893SOL     OW32856   2.937   2.219   8.544  0.2174  0.1031  0.1297
10893SOL    HW132857   2.945   2.267   8.631 -0.3096  0.0565  0.2085
10893SOL    HW232858   2.998   2.140   8.543  0.7870  0.5330  0.1587
10894SOL     OW32859   0.508   8.424   6.247 -0.2721 -0.2240  0.6379
10894SOL    HW132860   0.572   8.446   6.321  0.1169  1.2691 -0.0929
10894SOL    HW232861   0.422   8.471   6.263  0.5088  1.8898 -0.8601
10895SOL     OW32862   3.592   4.350   7.876  0.5436  0.8470 -0.1813
10895SOL    HW132863   3.685   4.382   7.893  0.9902 -0.3432 -0.3017
10895SOL    HW232864   3.594   4.272   7.812 -0.5173  0.7292 -0.0939
10896SOL     OW32865   0.895   6.185   8.356 -1.0168  0.7119  0.1161
10896SOL    HW132866   0.930   6.273   8.390 -2.2023  0.6021  1.7422
10896SOL    HW232867   0.945   6.110   8.400  0.0686  0.5384 -1.3541
10897SOL     OW32868   6.970   2.483   6.943 -0.2766 -0.2287 -0.2436
10897SOL    HW132869   7.035   2.417   6.980 -0.3704 -0.1814  0.0104
10897SOL    HW232870   6.899   2.435   6.891  0.2482 -0.2383 -0.9680
10898SOL     OW32871   8.769   1.104   5.016  0.2257  0.2396  0.0773
10898SOL    HW132872   8.805   1.139   4.930 -0.6355 -1.7773 -1.1804
10898SOL    HW232873   8.841   1.108   5.086  0.6161  2.9044 -0.3710
10899SOL     OW32874   7.384   2.525   6.610 -0.1989  0.3219  0.2043
10899SOL    HW132875   7.382   2.617   6.647 -1.4730  1.2858 -2.0481
10899SOL    HW232876   7.305   2.473   6.644  0.6562 -0.0865  1.6720
10900SOL     OW32877   4.556   6.913   6.209  0.2201 -0.4618 -0.0577
10900SOL    HW132878   4.589   6.846   6.275  2.7851 -0.8069 -1.5560
10900SOL    HW232879   4.584   7.005   6.238 -0.9674 -0.2937  0.6273
10901SOL     OW32880   7.962   5.318   5.016 -0.6030 -0.1000  0.4656
10901SOL    HW132881   8.015   5.326   4.931 -1.0001  0.7535  0.2852
10901SOL    HW232882   7.875   5.271   4.996  0.2171 -1.8647  0.8382
10902SOL     OW32883   3.446   6.020   5.107 -0.3437 -0.1092  0.0601
10902SOL    HW132884   3.496   6.073   5.176 -0.9229  2.2191 -1.1909
10902SOL    HW232885   3.501   6.016   5.023 -1.7344  1.6933 -1.0263
10903SOL     OW32886   6.116   7.825   4.430 -0.7151  0.1567 -0.4912
10903SOL    HW132887   6.187   7.787   4.371 -0.5447 -0.0690 -0.1460
10903SOL    HW232888   6.159   7.872   4.507 -0.9257 -1.3329  0.5774
10904SOL     OW32889   6.472   8.187   3.338 -0.1163 -0.1360 -0.0771
10904SOL    HW132890   6.379   8.176   3.304  0.5665  0.5736 -2.3790
10904SOL    HW232891   6.533   8.124   3.289  0.7961  0.2372  0.5529
10905SOL     OW32892   7.980   5.122   7.361  0.4649 -0.1161 -0.3711
10905SOL    HW132893   8.069   5.124   7.406  0.2213 -1.7570  0.2567
10905SOL    HW232894   7.927   5.202   7.388  0.0590 -1.3425  2.9191
10906SOL     OW32895   0.330   0.776   2.902  0.0430  0.5928 -0.0595
10906SOL    HW132896   0.383   0.850   2.859 -0.8309  2.5790  2.0371
10906SOL    HW232897   0.278   0.813   2.980  1.5099 -2.7063  2.7532
10907SOL     OW32898   0.348   0.888   7.874 -0.3557 -0.3312 -0.4280
10907SOL    HW132899   0.429   0.831   7.863 -1.1221 -1.3683 -0.8505
10907SOL    HW232900   0.357   0.970   7.817  0.9005  0.1608  0.4348
10908SOL     OW32901   7.669   5.012   2.923 -0.1129 -0.1098 -0.0471
10908SOL    HW132902   7.705   4.926   2.959  1.0871  0.7307  0.8491
10908SOL    HW232903   7.616   5.058   2.995  0.0677  0.3433 -0.2004
10909SOL     OW32904   8.550   4.308   2.152 -0.7791 -0.0858  0.0096
10909SOL    HW132905   8.455   4.320   2.181 -0.7596  0.2985 -0.0816
10909SOL    HW232906   8.560   4.336   2.057 -0.3100  1.1184  0.3963
10910SOL     OW32907   6.206   3.224   7.962 -0.4635 -0.3618  0.2550
10910SOL    HW132908   6.116   3.259   7.936 -0.3417  1.2084  1.7827
10910SOL    HW232909   6.212   3.128   7.937 -2.4265 -0.4199 -0.1989
10911SOL     OW32910   5.788   7.911   1.693 -0.1584 -0.0462  0.0863
10911SOL    HW132911   5.772   7.977   1.620  0.2290 -0.8824 -0.7840
10911SOL    HW232912   5.702   7.890   1.739 -0.5706 -0.1974 -0.7366
10912SOL     OW32913   2.671   3.375   4.967  0.6457  0.5497 -0.1326
10912SOL    HW132914   2.730   3.408   5.041  2.4441 -0.7532 -0.9335
10912SOL    HW232915   2.675   3.440   4.891  1.2948  0.3383 -0.2886
10913SOL     OW32916   1.056   8.659   2.627 -0.6020 -0.1049 -0.5288
10913SOL    HW132917   1.040   8.682   2.723 -1.3832 -1.0836 -0.3993
10913SOL    HW232918   1.037   8.738   2.570 -0.3810  0.4149  0.0976
10914SOL     OW32919   1.147   0.114   7.908 -0.5145  0.1064 -0.5408
10914SOL    HW132920   1.156   0.021   7.943 -2.7691  0.7050  1.9624
10914SOL    HW232921   1.238   0.154   7.895  0.4663 -1.5710  0.8074
10915SOL     OW32922   5.760   2.616   4.281 -0.0777 -0.5560 -0.7863
10915SOL    HW132923   5.729   2.560   4.204  0.9798  0.0952 -1.7199
10915SOL    HW232924   5.794   2.704   4.247 -0.0068 -0.0686  0.4753
10916SOL     OW32925   3.250   2.122   2.755  0.2235  0.3744 -0.2302
10916SOL    HW132926   3.206   2.032   2.752  0.8646 -0.1922  2.9873
10916SOL    HW232927   3.181   2.193   2.764 -0.2166 -0.0205 -0.4882
10917SOL     OW32928   2.297   3.142   0.183  0.1852  0.1521  0.1680
10917SOL    HW132929   2.350   3.140   0.268  0.9258  2.7993 -0.1697
10917SOL    HW232930   2.355   3.113   0.107  0.2396  0.1599  0.2064
10918SOL     OW32931   8.612   7.718   6.724  0.5523  0.0050 -0.1512
10918SOL    HW132932   8.600   7.627   6.765  0.1347  0.4767  0.8073
10918SOL    HW232933   8.705   7.750   6.742  0.8785 -0.4489 -0.9650
10919SOL     OW32934   2.478   3.817   2.983 -0.5159 -0.3225  0.6433
10919SOL    HW132935   2.484   3.827   3.082 -0.9908 -3.5389  1.0987
10919SOL    HW232936   2.510   3.901   2.939  0.2444  0.9891  3.4816
10920SOL     OW32937   3.209   5.008   0.448  0.5131 -0.3291  0.4136
10920SOL    HW132938   3.185   4.911   0.459  1.3640 -0.5153  0.7043
10920SOL    HW232939   3.239   5.024   0.354  0.9326 -0.4778  0.5201
10921SOL     OW32940   4.433   6.245   0.847 -0.0442  0.8337 -0.2646
10921SOL    HW132941   4.367   6.222   0.918  0.7313 -1.8561 -0.3152
10921SOL    HW232942   4.385   6.261   0.761 -0.7879  1.3431  0.2360
10922SOL     OW32943   5.383   8.445   7.085  0.1974  0.9566  0.6584
10922SOL    HW132944   5.395   8.459   6.987  0.0176  1.3212  0.6910
10922SOL    HW232945   5.450   8.377   7.117 -0.5237 -0.0759  0.0610
10923SOL     OW32946   8.718   6.368   5.642  0.2593  0.1615 -0.1830
10923SOL    HW132947   8.627   6.327   5.634  0.5913 -0.7421  0.4204
10923SOL    HW232948   8.721   6.454   5.592 -0.5777 -0.3773 -1.2079
10924SOL     OW32949   0.382   7.377   4.061 -0.1950  0.0880 -0.4916
10924SOL    HW132950   0.315   7.412   4.126 -0.3876 -0.4078 -0.4189
10924SOL    HW232951   0.401   7.447   3.992  0.1787  0.7020  0.2184
10925SOL     OW32952   6.549   8.668   0.421  0.1403  0.4000  0.0452
10925SOL    HW132953   6.501   8.582   0.438  0.6834 -0.4832 -2.3619
10925SOL    HW232954   6.487   8.745   0.437 -0.6951 -0.4741  1.1693
10926SOL     OW32955   8.320   1.083   4.288  0.3452 -0.1715 -0.2421
10926SOL    HW132956   8.348   1.129   4.373 -0.5239 -0.8766  0.4509
10926SOL    HW232957   8.338   1.143   4.210  1.3129  0.4301  0.4130
10927SOL     OW32958   3.088   2.773   3.829  0.2052 -0.3475  0.1176
10927SOL    HW132959   3.076   2.871   3.816  0.6740 -0.4656 -1.4470
10927SOL    HW232960   3.178   2.756   3.868 -1.3184  0.0324  4.2719
10928SOL     OW32961   5.286   2.263   7.830  0.0386 -0.3349 -0.1257
10928SOL    HW132962   5.358   2.211   7.877  0.1623 -1.0625 -1.0875
10928SOL    HW232963   5.276   2.352   7.874  1.2699 -0.3623  0.2661
10929SOL     OW32964   6.596   7.840   4.910 -0.1137  0.3871  0.0422
10929SOL    HW132965   6.638   7.924   4.876 -1.9295  1.0361 -0.7287
10929SOL    HW232966   6.634   7.762   4.861  1.7320  0.6938  0.9030
10930SOL     OW32967   7.116   0.142   7.861 -0.3175 -0.4105  0.8115
10930SOL    HW132968   7.179   0.164   7.935 -1.6067  1.1080  1.5058
10930SOL    HW232969   7.027   0.185   7.878 -0.6955 -0.1157 -1.5564
10931SOL     OW32970   6.591   1.842   7.411 -0.2844 -0.1493 -0.3804
10931SOL    HW132971   6.624   1.748   7.403 -0.3808 -0.2120 -0.0664
10931SOL    HW232972   6.667   1.905   7.400  0.0521 -0.3053  0.8687
10932SOL     OW32973   7.282   3.174   5.921  0.2587  0.4212 -0.5125
10932SOL    HW132974   7.233   3.221   5.995 -0.6272 -2.7893  1.1304
10932SOL    HW232975   7.222   3.164   5.842 -0.2320  0.3605 -0.1388
10933SOL     OW32976   8.361   3.083   6.367 -0.4243 -0.1982 -0.3025
10933SOL    HW132977   8.376   3.016   6.439  1.6189  0.9787  0.4382
10933SOL    HW232978   8.448   3.125   6.340 -1.6137  2.3837 -0.5100
10934SOL     OW32979   8.602   4.953   8.118  0.0770  0.1699  0.6469
10934SOL    HW132980   8.585   4.860   8.084 -1.5045  0.9543 -0.9182
10934SOL    HW232981   8.539   4.973   8.193 -0.1906  0.2433  0.4076
10935SOL     OW32982   5.315   3.709   0.401 -0.3044 -0.2537  0.8731
10935SOL    HW132983   5.278   3.658   0.479 -0.2468  0.3839  1.3225
10935SOL    HW232984   5.350   3.797   0.432  1.0940 -0.6061  0.3743
10936SOL     OW32985   0.110   1.631   8.718  0.0249  0.7009  0.6778
10936SOL    HW132986   0.036   1.612   8.654 -0.1233  0.2239  0.9851
10936SOL    HW232987   0.103   1.725   8.751  0.7888  1.3549 -0.9062
10937SOL     OW32988   3.518   4.891   0.895 -0.0332 -0.2405 -0.3431
10937SOL    HW132989   3.512   4.982   0.854  2.2840 -0.3716 -1.1094
10937SOL    HW232990   3.510   4.821   0.823 -1.8089 -0.6871  0.2387
10938SOL     OW32991   2.928   6.120   2.506  0.3744 -0.4010  0.4849
10938SOL    HW132992   3.008   6.062   2.493  0.1663 -0.6595  0.3333
10938SOL    HW232993   2.851   6.063   2.535  0.4766 -0.0277  1.5094
10939SOL     OW32994   8.212   6.602   2.465  0.3560 -0.5091 -0.0410
10939SOL    HW132995   8.135   6.560   2.416  0.9595 -1.5042 -0.1594
10939SOL    HW232996   8.241   6.541   2.539  0.0079  0.5883  1.0393
10940SOL     OW32997   3.259   4.691   0.228 -0.1303 -0.0804  0.6879
10940SOL    HW132998   3.249   4.607   0.175  1.1041 -0.2359  0.6646
10940SOL    HW232999   3.184   4.753   0.207 -0.0442 -0.4222 -0.7137
10941SOL     OW33000   6.455   2.011   8.855  0.3270 -0.2955 -0.3543
10941SOL    HW133001   6.476   1.989   8.950  0.2570 -0.3949 -0.3628
10941SOL    HW233002   6.364   1.978   8.832  0.8215 -1.3755 -0.8151
10942SOL     OW33003   4.272   2.809   5.928 -0.3022  0.3710 -0.3752
10942SOL    HW133004   4.320   2.856   5.853  0.6151 -0.0646 -0.0654
10942SOL    HW233005   4.306   2.716   5.937  0.6383  0.8445  1.5086
10943SOL     OW33006   4.625   3.323   1.029 -0.0386 -0.2517 -0.5631
10943SOL    HW133007   4.640   3.413   0.987  0.0117  0.0397  0.0685
10943SOL    HW233008   4.713   3.275   1.037  0.3267  0.6474  1.3210
10944SOL     OW33009   1.853   5.132   6.034 -0.5019  0.0036  0.4106
10944SOL    HW133010   1.917   5.208   6.022 -2.6762  1.9967  0.5538
10944SOL    HW233011   1.886   5.071   6.106  1.5933  0.4773 -0.0985
10945SOL     OW33012   5.473   2.396   7.286 -0.2848 -0.3962  0.3811
10945SOL    HW133013   5.433   2.480   7.321 -0.1902  0.8492 -2.2774
10945SOL    HW233014   5.401   2.327   7.275 -1.5904  1.2835 -2.8066
10946SOL     OW33015   0.201   0.971   3.051 -0.4958 -0.1258 -0.3672
10946SOL    HW133016   0.233   1.062   3.076  1.9709 -1.1788  0.7200
10946SOL    HW233017   0.107   0.976   3.018 -1.3769  2.4317  2.1581
10947SOL     OW33018   3.430   5.948   0.676  0.2680 -0.3949  0.3807
10947SOL    HW133019   3.344   5.991   0.649  1.2479  1.8036  0.5969
10947SOL    HW233020   3.426   5.850   0.654 -1.0926  0.2048 -2.5401
10948SOL     OW33021   5.954   7.410   0.084  0.1417  0.0027  0.9455
10948SOL    HW133022   6.037   7.413   0.029 -0.4515 -1.0551 -0.0642
10948SOL    HW233023   5.879   7.452   0.032 -0.0517  0.5427  1.6591
10949SOL     OW33024   8.203   1.908   5.056  0.0753 -0.5882  0.4908
10949SOL    HW133025   8.136   1.964   5.105 -0.5604 -1.3183  0.4881
10949SOL    HW233026   8.157   1.826   5.021  0.1709  0.5286 -2.5411
10950SOL     OW33027   8.165   7.486   4.252 -0.3605  0.3348 -0.1995
10950SOL    HW133028   8.188   7.398   4.294 -0.5803  0.5454  0.3855
10950SOL    HW233029   8.068   7.506   4.268 -1.0104 -0.5481 -2.6409
10951SOL     OW33030   8.074   6.138   3.850  0.1707  0.0055 -0.5284
10951SOL    HW133031   8.134   6.060   3.871  2.0056  1.0126 -1.7416
10951SOL    HW233032   8.124   6.223   3.863 -2.3778  1.1874  2.6267
10952SOL     OW33033   4.415   4.780   6.498  0.0065  0.2860 -0.1190
10952SOL    HW133034   4.433   4.729   6.414  0.6658 -0.8990  0.7014
10952SOL    HW233035   4.421   4.717   6.576 -0.7743  1.3179  0.7981
10953SOL     OW33036   3.853   5.222   8.719  0.1245 -0.0038  0.0635
10953SOL    HW133037   3.901   5.165   8.652 -0.8449 -2.3327  1.2635
10953SOL    HW233038   3.898   5.215   8.808  0.3350  1.6245  0.1187
10954SOL     OW33039   0.533   1.385   5.910 -0.0381  0.1844 -0.1223
10954SOL    HW133040   0.483   1.299   5.909 -0.0449  0.1949 -0.6939
10954SOL    HW233041   0.509   1.436   5.993 -0.4464 -0.1172 -0.0514
10955SOL     OW33042   7.197   0.883   2.111  0.7210  0.4683 -0.0607
10955SOL    HW133043   7.151   0.822   2.176  1.0980  0.2989  0.0519
10955SOL    HW233044   7.215   0.971   2.155 -2.2743  1.7043 -1.0332
10956SOL     OW33045   6.738   1.382   7.516 -0.1606  0.1974 -0.0467
10956SOL    HW133046   6.659   1.339   7.559 -0.6887 -0.0344 -1.2046
10956SOL    HW233047   6.805   1.313   7.492 -0.8241  0.0170 -1.5235
10957SOL     OW33048   2.551   6.617   7.764  0.8019 -0.2124  0.0963
10957SOL    HW133049   2.469   6.579   7.721  2.4742 -2.6565 -1.1708
10957SOL    HW233050   2.589   6.551   7.829  2.4169  0.3255 -0.2436
10958SOL     OW33051   0.567   6.802   0.220  0.0861  0.1279  0.0655
10958SOL    HW133052   0.542   6.898   0.216 -1.4494 -0.2801 -0.7013
10958SOL    HW233053   0.484   6.745   0.223  0.9437 -1.2185 -0.6684
10959SOL     OW33054   3.309   6.280   3.455 -0.1405  0.2089 -0.2108
10959SOL    HW133055   3.224   6.291   3.403  0.1125 -1.3750 -1.0369
10959SOL    HW233056   3.386   6.309   3.399 -0.1231  1.8312  0.6107
10960SOL     OW33057   0.881   7.255   0.112 -0.1255 -0.0710 -0.3303
10960SOL    HW133058   0.836   7.176   0.153  0.0643 -0.5977 -1.1022
10960SOL    HW233059   0.971   7.228   0.077  1.2228  1.1637  1.9636
10961SOL     OW33060   0.094   0.376   3.807  0.2215  0.5208  0.2124
10961SOL    HW133061   0.073   0.307   3.877 -0.2899  1.0020  0.5390
10961SOL    HW233062   0.147   0.450   3.849 -2.9164  2.5241  0.9936
10962SOL     OW33063   0.490   3.648   8.153  0.0530 -0.8110 -0.0789
10962SOL    HW133064   0.476   3.553   8.126 -1.2750 -1.1744  1.7411
10962SOL    HW233065   0.512   3.653   8.250 -2.9288  0.8595  0.6639
10963SOL     OW33066   3.398   7.039   0.832 -0.1858 -0.5394  0.7156
10963SOL    HW133067   3.441   7.014   0.745  0.4102 -0.3393  0.9504
10963SOL    HW233068   3.445   6.993   0.907  0.8621  1.1639  1.1502
10964SOL     OW33069   5.066   5.656   5.424  0.2884  0.1052 -0.3804
10964SOL    HW133070   5.047   5.749   5.393  1.3912 -0.0525 -1.6419
10964SOL    HW233071   4.980   5.609   5.442 -0.3212  1.0193 -0.7910
10965SOL     OW33072   2.753   2.194   7.618 -0.4472  0.5335  0.2109
10965SOL    HW133073   2.811   2.274   7.631  1.2484 -0.6379  0.0940
10965SOL    HW233074   2.676   2.218   7.559 -0.5882  2.3428  1.0750
10966SOL     OW33075   5.418   4.492   8.049  0.3455  0.1371 -0.8033
10966SOL    HW133076   5.343   4.531   8.103 -0.2045  0.4803 -1.7924
10966SOL    HW233077   5.505   4.512   8.094  0.0410  2.0385 -0.9689
10967SOL     OW33078   5.145   5.082   1.318 -0.6589  0.2853 -0.2523
10967SOL    HW133079   5.233   5.127   1.307  0.3663 -1.0958  1.6935
10967SOL    HW233080   5.095   5.084   1.232  1.1977  1.2267 -1.3598
10968SOL     OW33081   2.565   3.868   7.943  0.0409 -0.2753  0.4003
10968SOL    HW133082   2.498   3.817   7.996 -2.0367  1.3398 -0.5301
10968SOL    HW233083   2.539   3.866   7.846  0.9875  0.9005  0.1037
10969SOL     OW33084   2.847   0.723   3.181 -0.2238  0.0156 -0.2410
10969SOL    HW133085   2.823   0.818   3.203 -2.0271  0.1659 -2.4149
10969SOL    HW233086   2.772   0.663   3.208  0.6953 -0.7488  0.6600
10970SOL     OW33087   8.039   7.984   6.468 -0.9180 -0.3460  0.1130
10970SOL    HW133088   8.131   7.965   6.432 -0.0735  2.3329  0.5990
10970SOL    HW233089   8.029   7.941   6.557  0.9912  1.5160  1.3227
10971SOL     OW33090   6.799   4.995   3.132  0.3465  0.1945 -0.0639
10971SOL    HW133091   6.838   4.908   3.102  1.1716  0.6110 -0.2431
10971SOL    HW233092   6.700   4.993   3.121  0.4657 -0.2873 -1.1914
10972SOL     OW33093   8.007   5.985   4.141 -0.0451 -0.2166 -0.2517
10972SOL    HW133094   8.072   5.983   4.217  0.0451 -0.4847 -0.3351
10972SOL    HW233095   7.929   6.043   4.165  0.2454  0.1404 -0.1658
10973SOL     OW33096   8.064   2.643   6.474  0.0165 -0.3842  0.3429
10973SOL    HW133097   8.003   2.704   6.525 -1.8920 -1.0382 -1.0356
10973SOL    HW233098   8.137   2.611   6.534 -0.7037  0.7992  1.9394
10974SOL     OW33099   7.143   7.373   5.040 -0.4406  0.2892 -0.4137
10974SOL    HW133100   7.239   7.348   5.052 -0.7690 -0.1486  1.6032
10974SOL    HW233101   7.100   7.311   4.974 -0.0528 -1.4881  0.9338
10975SOL     OW33102   6.949   1.882   1.933  0.4581 -0.5755 -0.2794
10975SOL    HW133103   6.977   1.900   2.028  1.6017 -1.1718 -0.4954
10975SOL    HW233104   6.854   1.851   1.932  0.7886 -1.7144  0.8053
10976SOL     OW33105   4.581   0.833   1.697 -0.0594  0.0152 -0.4491
10976SOL    HW133106   4.523   0.911   1.674  0.5809  0.3134 -1.0769
10976SOL    HW233107   4.641   0.858   1.774 -1.7759 -0.7837  1.2296
10977SOL     OW33108   1.825   4.297   7.576  0.6924  0.0883  0.3596
10977SOL    HW133109   1.736   4.289   7.531  0.9343 -0.1410 -0.0942
10977SOL    HW233110   1.841   4.392   7.602  1.1764  0.5439 -1.4139
10978SOL     OW33111   6.105   5.915   2.401 -0.1074  0.1320 -0.1170
10978SOL    HW133112   6.091   5.816   2.407 -3.5797  0.5796  1.6171
10978SOL    HW233113   6.108   5.943   2.305  0.9306 -1.6070 -0.6306
10979SOL     OW33114   4.406   3.678   7.212 -0.3729  0.2480 -0.3919
10979SOL    HW133115   4.479   3.647   7.273 -0.3878 -0.2871 -0.6414
10979SOL    HW233116   4.344   3.737   7.263 -0.3084 -0.0843  0.0841
10980SOL     OW33117   7.571   7.393   4.697  0.5624 -0.0300  0.2418
10980SOL    HW133118   7.495   7.386   4.632  0.8692  2.2975 -0.4523
10980SOL    HW233119   7.650   7.345   4.660  0.0861 -0.6212 -0.0434
10981SOL     OW33120   4.521   0.810   3.702  0.2117  0.1205  0.0752
10981SOL    HW133121   4.503   0.749   3.779  0.5272 -0.7532 -0.5357
10981SOL    HW233122   4.440   0.813   3.643  0.2140  0.2656  0.0787
10982SOL     OW33123   2.994   7.838   4.049  0.0797 -0.0876 -0.3587
10982SOL    HW133124   3.041   7.923   4.072 -1.0917  0.7227 -0.8493
10982SOL    HW233125   2.968   7.790   4.133  0.6534  0.0887 -0.0803
10983SOL     OW33126   6.238   4.934   1.794 -0.0819 -0.3798 -0.5532
10983SOL    HW133127   6.244   5.031   1.818 -0.3363 -0.3498 -0.6185
10983SOL    HW233128   6.143   4.908   1.779  0.0481 -0.4539 -1.3110
10984SOL     OW33129   7.857   1.907   6.349  0.6725  0.2650  0.4727
10984SOL    HW133130   7.818   1.821   6.316 -1.3948  1.7148 -1.1185
10984SOL    HW233131   7.932   1.887   6.413 -0.5947 -2.6802  1.2110
10985SOL     OW33132   2.903   2.465   0.282  0.0134 -1.2759 -0.5331
10985SOL    HW133133   2.857   2.531   0.222 -0.2369 -1.7027 -0.8138
10985SOL    HW233134   2.835   2.416   0.336  0.1899 -1.3775 -0.4011
10986SOL     OW33135   1.117   7.616   5.332  0.4594  0.3299 -0.3077
10986SOL    HW133136   1.211   7.650   5.331  0.1853  1.3446  2.0891
10986SOL    HW233137   1.076   7.629   5.241  2.2388  0.9164 -1.0763
10987SOL     OW33138   3.358   5.793   6.247 -0.4606  0.4235 -0.2491
10987SOL    HW133139   3.293   5.837   6.309  0.6451 -0.0728  1.3091
10987SOL    HW233140   3.440   5.767   6.297  0.0668 -0.9031 -1.7190
10988SOL     OW33141   0.245   4.625   3.796  0.1789  0.4182 -0.3141
10988SOL    HW133142   0.326   4.651   3.849 -0.6893 -0.7279  1.6756
10988SOL    HW233143   0.258   4.533   3.759 -0.0267  0.4269 -0.4087
10989SOL     OW33144   0.313   2.610   0.001 -0.2773  0.3426  0.2211
10989SOL    HW133145   0.340   2.559  -0.080  0.2183  1.5273 -0.3763
10989SOL    HW233146   0.394   2.646   0.046 -0.6414  0.8883  0.4430
10990SOL     OW33147   8.447   7.967   7.519 -0.0137  0.4508 -0.0425
10990SOL    HW133148   8.504   8.047   7.538  0.6782  0.0660 -0.4554
10990SOL    HW233149   8.489   7.912   7.447  0.1592 -0.9344  1.0733
10991SOL     OW33150   2.974   6.757   0.803 -0.3874 -0.0288 -0.1183
10991SOL    HW133151   3.018   6.778   0.890 -0.5676 -0.0066 -0.0322
10991SOL    HW233152   2.904   6.826   0.783 -1.8669 -1.1960  0.7755
10992SOL     OW33153   5.152   8.187   4.345 -0.1215 -0.2454 -0.3131
10992SOL    HW133154   5.055   8.181   4.366  0.4489 -1.3892  2.5086
10992SOL    HW233155   5.181   8.283   4.348 -0.8611 -0.0319  0.4849
10993SOL     OW33156   2.467   6.134   8.281 -0.3084 -0.0024 -0.1477
10993SOL    HW133157   2.562   6.109   8.301  0.1763  0.7950 -1.4019
10993SOL    HW233158   2.406   6.062   8.317  0.6675 -0.0033  1.6370
10994SOL     OW33159   6.638   4.089   3.659 -0.0454 -0.0973 -0.5354
10994SOL    HW133160   6.668   4.168   3.712 -1.6716 -0.1435  0.5086
10994SOL    HW233161   6.679   4.006   3.697 -1.0536 -0.1105  0.5874
10995SOL     OW33162   8.773   0.213   2.602 -0.3092  0.3899  0.1279
10995SOL    HW133163   8.787   0.134   2.662  0.1336 -1.6847 -2.4790
10995SOL    HW233164   8.761   0.180   2.508 -0.4919  3.4659 -1.0137
10996SOL     OW33165   6.763   8.392   3.136 -0.4400 -0.0514  0.7388
10996SOL    HW133166   6.667   8.420   3.137 -0.5222 -0.3046  0.1619
10996SOL    HW233167   6.821   8.473   3.146 -0.7020  0.1910  0.3387
10997SOL     OW33168   1.476   4.237   0.284  0.8070 -0.1342 -0.5588
10997SOL    HW133169   1.393   4.183   0.294  0.8588  0.0296  0.9840
10997SOL    HW233170   1.472   4.318   0.343  1.3300  0.8194 -1.7789
10998SOL     OW33171   3.779   7.672   8.234  0.7704  0.0587  0.3687
10998SOL    HW133172   3.808   7.651   8.327  0.7888 -0.8052  0.1844
10998SOL    HW233173   3.771   7.771   8.222  0.0639  0.1563  1.4936
10999SOL     OW33174   5.002   1.214   8.594 -0.3335 -0.4509 -1.0209
10999SOL    HW133175   5.063   1.292   8.605 -0.7681 -0.1418 -0.7410
10999SOL    HW233176   4.936   1.234   8.521 -0.3971 -0.5883 -1.0017
11000SOL     OW33177   1.408   8.297   6.657 -0.2904  0.5732 -0.0825
11000SOL    HW133178   1.379   8.361   6.586  0.8461  0.7563 -0.3954
11000SOL    HW233179   1.492   8.331   6.700 -1.4088  0.9117  1.9612
11001SOL     OW33180   5.023   7.002   7.241  0.1462  0.1162 -0.0516
11001SOL    HW133181   5.053   7.078   7.183 -1.6464  0.9395  0.0154
11001SOL    HW233182   4.985   6.930   7.182 -0.6665  0.4807  0.0070
11002SOL     OW33183   6.428   4.339   3.808 -0.4843  0.2539 -0.4647
11002SOL    HW133184   6.389   4.290   3.730 -0.9418 -0.9817  0.5150
11002SOL    HW233185   6.528   4.336   3.801 -0.4920  1.5010 -1.7903
11003SOL     OW33186   8.496   7.464   7.539  0.1135 -0.0641  0.4068
11003SOL    HW133187   8.582   7.497   7.498  1.2171 -3.0753  0.0491
11003SOL    HW233188   8.517   7.414   7.623 -1.1460 -1.8846 -0.3256
11004SOL     OW33189   5.081   3.333   3.133 -0.1373 -0.0779  0.6187
11004SOL    HW133190   5.161   3.358   3.077 -0.8832 -0.5148 -0.6871
11004SOL    HW233191   5.082   3.387   3.217  0.1084  1.8904 -0.5818
11005SOL     OW33192   4.726   5.367   0.846 -0.4468  0.0004 -0.1929
11005SOL    HW133193   4.683   5.283   0.813  0.3558  0.0340 -1.4073
11005SOL    HW233194   4.719   5.372   0.945 -0.5429 -1.4798 -0.1055
11006SOL     OW33195   2.285   6.512   0.045 -0.4050  0.3596  0.4226
11006SOL    HW133196   2.197   6.537   0.006 -0.7758  0.4704  1.2946
11006SOL    HW233197   2.300   6.565   0.129  1.1262  1.3747 -0.4503
11007SOL     OW33198   8.359   1.175   0.939  0.4829 -0.3931  0.5014
11007SOL    HW133199   8.290   1.152   1.009 -0.8721 -1.0929 -1.0123
11007SOL    HW233200   8.335   1.263   0.898  0.6866 -0.4791  0.1992
11008SOL     OW33201   2.690   4.025   8.816 -0.4033  0.6495  0.1968
11008SOL    HW133202   2.683   4.105   8.875  0.7414  1.8815 -1.2408
11008SOL    HW233203   2.704   3.943   8.871 -1.3093  1.4667  1.6896
11009SOL     OW33204   1.257   1.691   4.888  0.2995 -0.2093 -0.7777
11009SOL    HW133205   1.171   1.673   4.839  0.0405 -0.3660 -0.2743
11009SOL    HW233206   1.291   1.782   4.863  0.1994 -0.3088 -1.2849
11010SOL     OW33207   1.698   5.116   5.503 -0.0213 -0.1121 -0.0429
11010SOL    HW133208   1.774   5.146   5.562  0.4970 -0.1977 -0.6514
11010SOL    HW233209   1.622   5.087   5.560  0.6476 -0.6596  0.5990
11011SOL     OW33210   3.965   6.016   6.511 -0.4210  0.3918  0.1194
11011SOL    HW133211   3.940   6.111   6.532 -0.0337  0.0646  2.3309
11011SOL    HW233212   4.014   5.977   6.589  0.4715 -1.2775 -1.2232
11012SOL     OW33213   3.854   1.121   5.661 -0.6090 -0.4434 -0.0884
11012SOL    HW133214   3.896   1.046   5.713 -2.3370 -2.0217 -0.8705
11012SOL    HW233215   3.853   1.203   5.718 -1.2883 -1.7684  1.9584
11013SOL     OW33216   3.820   7.210   1.427 -0.8457  0.2816  0.4436
11013SOL    HW133217   3.758   7.145   1.382 -0.4143  1.4582 -2.0430
11013SOL    HW233218   3.771   7.261   1.497 -2.2340 -0.0267 -0.2727
11014SOL     OW33219   5.953   7.608   6.984 -0.3451  0.0703 -0.4105
11014SOL    HW133220   6.039   7.648   7.015 -1.1854 -0.4943  3.0873
11014SOL    HW233221   5.971   7.543   6.910  2.1328  0.3730 -0.1539
11015SOL     OW33222   0.681   3.128   3.790  0.2386 -0.1075 -0.0665
11015SOL    HW133223   0.652   3.105   3.697  1.2601  1.0736 -0.7177
11015SOL    HW233224   0.606   3.110   3.854 -1.0532  0.5412 -1.3349
11016SOL     OW33225   2.572   0.133   2.588  0.1839 -0.0240 -0.2705
11016SOL    HW133226   2.480   0.111   2.556  0.3429 -1.8832  0.4021
11016SOL    HW233227   2.605   0.215   2.542 -1.1485 -0.2940 -1.7945
11017SOL     OW33228   8.598   0.002   0.672 -0.0044 -0.0061 -0.5938
11017SOL    HW133229   8.503   0.020   0.647  0.0342 -0.3895 -1.0371
11017SOL    HW233230   8.638  -0.062   0.607  0.1049 -1.0562  0.4735
11018SOL     OW33231   3.930   8.826   4.278 -0.8503  0.2481 -0.1068
11018SOL    HW133232   3.884   8.741   4.307 -0.1713 -0.5046 -1.1994
11018SOL    HW233233   4.028   8.818   4.294 -0.6281  0.3434 -1.3478
11019SOL     OW33234   4.737   1.072   0.341  0.5133  0.1422  0.5207
11019SOL    HW133235   4.727   0.981   0.301 -2.2052  0.0542  1.2477
11019SOL    HW233236   4.834   1.090   0.359  1.2516 -1.9834 -0.9824
11020SOL     OW33237   7.493   5.754   6.007  0.3760  0.0414 -0.0145
11020SOL    HW133238   7.452   5.674   6.052 -1.1344 -0.5950 -2.3641
11020SOL    HW233239   7.529   5.727   5.918  0.5535  1.8390 -0.5269
11021SOL     OW33240   8.757   6.523   8.189 -0.3188 -0.4611 -0.1023
11021SOL    HW133241   8.662   6.523   8.157 -0.5555 -1.4155  0.5627
11021SOL    HW233242   8.772   6.444   8.249  0.4593  0.5764  1.1077
11022SOL     OW33243   1.688   7.671   0.203 -0.5242 -0.3558 -0.3540
11022SOL    HW133244   1.658   7.616   0.282  1.7563 -1.2049 -0.0072
11022SOL    HW233245   1.787   7.680   0.205 -0.6682  2.2913 -1.4542
11023SOL     OW33246   8.703   2.279   2.339  0.3550  0.0109  0.0262
11023SOL    HW133247   8.689   2.210   2.411 -0.0425  1.7660  1.7209
11023SOL    HW233248   8.614   2.314   2.309  0.5899  0.6223  0.0322
11024SOL     OW33249   2.746   8.370   7.540 -0.0088  0.3134  0.1795
11024SOL    HW133250   2.733   8.287   7.594  1.0432  0.0627  0.0738
11024SOL    HW233251   2.666   8.429   7.550 -0.0121  0.0969  1.6739
11025SOL     OW33252   2.391   1.472   2.958  0.0192  0.0278 -0.1969
11025SOL    HW133253   2.397   1.382   2.914  1.7226 -0.5172  1.0620
11025SOL    HW233254   2.315   1.472   3.024  0.9774 -1.0677  0.9610
11026SOL     OW33255   2.916   2.869   4.264  0.3512  0.4253 -0.1799
11026SOL    HW133256   2.851   2.808   4.310  0.8497  0.8752  1.1398
11026SOL    HW233257   3.009   2.844   4.289  0.6827  0.2460 -1.5009
11027SOL     OW33258   5.049   4.612   4.692  0.0532 -0.3717  0.3265
11027SOL    HW133259   5.077   4.654   4.778 -0.9174 -2.3287  1.6803
11027SOL    HW233260   4.987   4.674   4.644 -0.5269  0.1936  1.7346
11028SOL     OW33261   2.894   3.884   1.010  0.0134  0.2601 -0.2135
11028SOL    HW133262   2.931   3.971   1.044 -1.4247 -0.1122  2.5587
11028SOL    HW233263   2.820   3.903   0.945  0.1779  1.1035 -0.1697
11029SOL     OW33264   3.576   3.078   1.381 -0.6869  0.3942  0.3304
11029SOL    HW133265   3.516   3.021   1.324 -0.8633 -1.1560  1.9803
11029SOL    HW233266   3.671   3.056   1.360 -0.7530 -0.6241  1.0163
11030SOL     OW33267   1.628   0.324   5.777 -0.4506 -0.3720 -0.3344
11030SOL    HW133268   1.627   0.413   5.733 -0.6860  0.5304  1.3993
11030SOL    HW233269   1.650   0.253   5.710  0.9532  1.1102 -1.5057
11031SOL     OW33270   2.085   1.287   8.198 -0.1401 -0.2328 -0.2703
11031SOL    HW133271   2.037   1.275   8.285 -0.8223 -1.4446 -0.7825
11031SOL    HW233272   2.157   1.219   8.190  0.1946  0.1404 -0.4888
11032SOL     OW33273   7.377   7.036   8.286 -0.2769  0.5628  0.1933
11032SOL    HW133274   7.284   7.019   8.321  0.1591  1.8846  2.2208
11032SOL    HW233275   7.443   7.016   8.358  0.8421  1.6852 -0.4959
11033SOL     OW33276   4.925   5.515   3.211 -0.1680 -0.5218  0.0392
11033SOL    HW133277   5.002   5.558   3.163  0.9095 -0.0089  2.1158
11033SOL    HW233278   4.926   5.417   3.192  1.0991 -0.5497  0.1448
11034SOL     OW33279   0.397   1.871   2.859  0.0785 -0.4552 -0.3885
11034SOL    HW133280   0.327   1.803   2.881 -0.0682 -0.7297 -1.6358
11034SOL    HW233281   0.399   1.886   2.761  0.7085  0.7216 -0.2071
11035SOL     OW33282   2.145   6.117   0.144  0.2079 -0.0508 -0.4098
11035SOL    HW133283   2.063   6.108   0.202 -0.4740  0.0733 -1.3423
11035SOL    HW233284   2.175   6.026   0.115 -0.5635 -0.0174 -1.3733
11036SOL     OW33285   5.465   8.208   1.562  0.3648  0.1727 -0.4318
11036SOL    HW133286   5.401   8.200   1.638 -1.3855 -0.7465 -1.9218
11036SOL    HW233287   5.458   8.300   1.522  0.3118  0.2297 -0.2896
11037SOL     OW33288   3.152   2.707   2.292 -0.3676  0.2270  0.3309
11037SOL    HW133289   3.194   2.769   2.360  0.2866 -0.7347  0.8252
11037SOL    HW233290   3.060   2.684   2.322 -1.1286  1.9642 -0.5128
11038SOL     OW33291   5.166   4.762   3.127 -0.2218  0.1344  0.4151
11038SOL    HW133292   5.179   4.768   3.027 -0.8536  0.7849  0.3622
11038SOL    HW233293   5.084   4.708   3.147  0.7383 -1.2889  0.6446
11039SOL     OW33294   7.397   2.118   3.379  0.2217  0.1970 -0.1394
11039SOL    HW133295   7.339   2.037   3.379  0.7814 -0.2180  0.7187
11039SOL    HW233296   7.409   2.152   3.286  1.4288 -1.7313 -0.7302
11040SOL     OW33297   2.529   7.897   5.158  0.1151  0.5722 -0.1548
11040SOL    HW133298   2.440   7.854   5.148  0.6717 -0.5199 -0.4982
11040SOL    HW233299   2.537   7.936   5.250  0.0205 -1.0788  0.5886
11041SOL     OW33300   4.349   7.934   6.389  0.6020 -0.1818 -0.1095
11041SOL    HW133301   4.261   7.981   6.392  0.3774 -0.5929 -0.0577
11041SOL    HW233302   4.411   7.982   6.327  0.4909  0.3586  0.1929
11042SOL     OW33303   2.542   6.705   1.094 -0.2959 -0.4893  0.2766
11042SOL    HW133304   2.474   6.683   1.024  0.3770 -0.3884 -0.4317
11042SOL    HW233305   2.576   6.620   1.135 -0.5040 -0.5640  0.2940
11043SOL     OW33306   2.544   2.171   3.827 -0.4656  0.7627  0.6501
11043SOL    HW133307   2.447   2.154   3.812  0.0253 -0.3792 -1.6881
11043SOL    HW233308   2.567   2.263   3.796 -0.7705  1.0003  1.1223
11044SOL     OW33309   1.610   2.633   1.331 -0.2237 -0.4467  0.0839
11044SOL    HW133310   1.674   2.568   1.291 -0.6615  0.0856 -1.5393
11044SOL    HW233311   1.627   2.724   1.293  0.2292  0.4001  2.1389
11045SOL     OW33312   8.546   2.598   7.023  0.5204  0.7819  0.1617
11045SOL    HW133313   8.608   2.630   6.951 -0.6057 -1.0046 -1.7049
11045SOL    HW233314   8.599   2.550   7.093  1.4775  1.1070 -0.3171
11046SOL     OW33315   1.982   2.102   3.247  0.1586  0.7104 -0.1462
11046SOL    HW133316   2.000   2.199   3.263  2.7389  0.2874  0.0480
11046SOL    HW233317   2.010   2.078   3.154  2.5837 -0.3971  0.7883
11047SOL     OW33318   6.504   0.558   5.415  0.0115  0.3465 -0.3330
11047SOL    HW133319   6.591   0.519   5.384 -0.2705  0.6547 -1.5581
11047SOL    HW233320   6.521   0.617   5.494  1.0049  0.8546 -0.8981
11048SOL     OW33321   8.682   3.313   3.599  0.2360  0.3016  1.0814
11048SOL    HW133322   8.626   3.260   3.535  0.1319  0.4239  1.0718
11048SOL    HW233323   8.722   3.391   3.551  0.1470  0.4004  1.1691
11049SOL     OW33324   5.139   6.045   2.532 -0.0250 -0.6782  0.3546
11049SOL    HW133325   5.066   5.988   2.568  0.0417 -0.3897  0.9588
11049SOL    HW233326   5.102   6.110   2.466 -0.3246 -0.4562  0.7464
11050SOL     OW33327   4.030   3.436   8.725  0.2690 -0.2541  0.5057
11050SOL    HW133328   4.130   3.444   8.733  0.4531  0.2913 -1.6686
11050SOL    HW233329   4.000   3.480   8.641 -1.8725 -0.1929  1.2415
11051SOL     OW33330   6.421   1.216   8.496  0.7062 -0.0657  0.2764
11051SOL    HW133331   6.413   1.194   8.593  0.4742  0.1508  0.3091
11051SOL    HW233332   6.486   1.291   8.484 -1.0040  1.5523  0.5226
11052SOL     OW33333   1.512   3.443   3.999 -0.2083  0.0060  0.5500
11052SOL    HW133334   1.566   3.518   3.960  0.0991 -0.9819 -0.9809
11052SOL    HW233335   1.511   3.452   4.099  1.9276  0.6217  0.5652
11053SOL     OW33336   5.171   5.910   7.204  0.3902  0.0940 -0.1270
11053SOL    HW133337   5.263   5.941   7.229  1.4063 -1.0805 -2.1613
11053SOL    HW233338   5.166   5.898   7.105 -1.8188 -0.4024 -0.0006
11054SOL     OW33339   7.656   6.959   0.159  0.3081  0.4259  0.0152
11054SOL    HW133340   7.678   7.055   0.176  2.9228 -0.3300  1.5758
11054SOL    HW233341   7.596   6.925   0.231 -0.6193  0.8798 -0.5376
11055SOL     OW33342   8.824   7.813   7.496  0.5042  0.3760 -0.2365
11055SOL    HW133343   8.840   7.912   7.499 -1.4608  0.7476 -0.5933
11055SOL    HW233344   8.900   7.769   7.448  0.7532  1.8660 -1.2922
11056SOL     OW33345   3.848   0.530   5.772 -0.0167  0.1612  0.0180
11056SOL    HW133346   3.847   0.457   5.841 -1.5353  0.9284  0.8598
11056SOL    HW233347   3.940   0.568   5.766  0.2614 -0.2382  1.3212
11057SOL     OW33348   5.083   1.172   2.101 -0.4698  0.0760  0.1478
11057SOL    HW133349   5.129   1.249   2.146  0.5455  1.0220 -2.3033
11057SOL    HW233350   5.020   1.208   2.031 -1.4135 -1.3106  0.2648
11058SOL     OW33351   8.366   5.258   5.280 -0.3198  0.1415 -0.0037
11058SOL    HW133352   8.412   5.169   5.275  1.2349  0.8752  0.8222
11058SOL    HW233353   8.431   5.328   5.307 -1.5255  1.5601 -0.6492
11059SOL     OW33354   7.748   6.729   2.463  0.4043 -0.1072 -0.3694
11059SOL    HW133355   7.799   6.643   2.475  0.4600 -0.1855 -1.1014
11059SOL    HW233356   7.657   6.709   2.426  0.1713  0.1037  0.0825
11060SOL     OW33357   1.027   4.937   6.926 -0.3258 -0.5444 -0.2757
11060SOL    HW133358   1.019   4.991   6.842 -1.3660 -1.4689 -0.7992
11060SOL    HW233359   0.973   4.853   6.917 -0.7968 -0.4663  1.4679
11061SOL     OW33360   1.464   5.434   2.281 -0.0369  0.3294 -0.4539
11061SOL    HW133361   1.537   5.420   2.214  0.5770  0.8110  0.0978
11061SOL    HW233362   1.393   5.492   2.240  0.8397  1.5032 -0.3537
11062SOL     OW33363   6.350   2.188   0.236 -0.2563 -0.0256 -0.7868
11062SOL    HW133364   6.420   2.205   0.167  2.6230 -4.8150  0.4543
11062SOL    HW233365   6.377   2.231   0.322  0.0215 -0.0288 -0.8703
11063SOL     OW33366   4.540   0.345   3.752  0.4265 -0.4915  0.1183
11063SOL    HW133367   4.491   0.409   3.693  2.4866  0.7370 -0.3687
11063SOL    HW233368   4.611   0.298   3.698 -1.2518 -3.5448  0.3591
11064SOL     OW33369   3.733   4.822   8.193  0.0762 -0.1756  0.3178
11064SOL    HW133370   3.717   4.779   8.104  1.0845 -1.2559  0.6445
11064SOL    HW233371   3.831   4.836   8.206 -0.1867  3.1977 -0.1907
11065SOL     OW33372   3.421   1.785   0.438  0.3815  0.1651  0.4529
11065SOL    HW133373   3.404   1.768   0.341 -2.6405  1.6793  0.6082
11065SOL    HW233374   3.421   1.884   0.455  1.4482 -0.0508  1.9418
11066SOL     OW33375   0.921   6.557   3.660  0.3170 -0.5374  0.1133
11066SOL    HW133376   0.852   6.629   3.648 -1.6370 -2.4337 -0.8311
11066SOL    HW233377   1.003   6.581   3.609 -0.5757  0.6674 -0.8347
11067SOL     OW33378   5.028   5.010   5.088  0.0471  0.3087  0.2830
11067SOL    HW133379   5.102   5.032   5.152 -0.0970  2.2434 -0.1374
11067SOL    HW233380   4.982   5.095   5.060 -1.1379 -0.6754 -0.8936
11068SOL     OW33381   3.055   7.533   5.941 -0.1406 -0.4607  0.3018
11068SOL    HW133382   3.060   7.461   6.010 -2.2522 -0.6398  0.3178
11068SOL    HW233383   2.973   7.520   5.885 -0.3699  1.7137  0.0673
11069SOL     OW33384   4.285   1.983   7.948  0.0159 -0.0202  0.3063
11069SOL    HW133385   4.298   1.920   8.025  0.5132  0.4927  0.6487
11069SOL    HW233386   4.304   2.076   7.977 -0.4632  0.2657 -0.2696
11070SOL     OW33387   0.601   4.244   1.255  0.7647 -0.4006 -0.7228
11070SOL    HW133388   0.557   4.157   1.274  1.1029 -0.0315  2.1699
11070SOL    HW233389   0.699   4.229   1.241  1.2931 -0.3464  2.2948
11071SOL     OW33390   0.409   6.409   6.010  0.2026  0.1853  0.6133
11071SOL    HW133391   0.433   6.315   5.985 -0.7745 -0.2161  1.1391
11071SOL    HW233392   0.481   6.471   5.978  1.3246 -0.8321  1.0736
11072SOL     OW33393   4.354   8.125   6.711  0.2562 -0.1192 -0.5316
11072SOL    HW133394   4.277   8.067   6.686 -0.7027  0.6956  0.4784
11072SOL    HW233395   4.325   8.193   6.778  2.4316 -1.4999  1.9947
11073SOL     OW33396   3.795   1.441   2.602 -0.3456 -0.0512 -0.0497
11073SOL    HW133397   3.728   1.456   2.675 -1.6945 -2.1682 -0.7880
11073SOL    HW233398   3.873   1.390   2.639  0.9089  2.2397  0.7575
11074SOL     OW33399   5.326   1.429   5.389 -0.2515  0.5677 -0.0388
11074SOL    HW133400   5.416   1.471   5.402  1.0376 -2.4757  1.9164
11074SOL    HW233401   5.256   1.491   5.423  1.3651  1.8177  1.1985
11075SOL     OW33402   7.934   6.092   1.858 -0.0524  0.0383  0.1887
11075SOL    HW133403   7.898   6.111   1.767  3.9850  0.8264 -1.4430
11075SOL    HW233404   7.975   6.000   1.859 -0.4818 -0.1592  1.3989
11076SOL     OW33405   4.154   7.698   4.655  0.0144 -0.7104  0.2677
11076SOL    HW133406   4.226   7.660   4.713 -0.3507 -0.0213  1.2075
11076SOL    HW233407   4.148   7.646   4.570  0.5267 -1.7900  0.8699
11077SOL     OW33408   5.515   7.320   6.174 -0.4113 -0.3186 -0.1980
11077SOL    HW133409   5.442   7.295   6.238 -0.3567  0.3884  0.1462
11077SOL    HW233410   5.539   7.240   6.118 -1.3489 -0.5948 -0.2193
11078SOL     OW33411   7.292   2.890   4.946  0.0479 -0.4471 -0.2055
11078SOL    HW133412   7.263   2.803   4.984  1.4925 -0.1662  1.6750
11078SOL    HW233413   7.322   2.951   5.019  2.1703  0.4478 -1.6868
11079SOL     OW33414   2.929   4.364   1.720  0.0755  0.0945 -0.6080
11079SOL    HW133415   2.955   4.386   1.814 -0.0043 -0.4957 -0.4449
11079SOL    HW233416   2.975   4.279   1.692  0.8300  0.7522 -1.4201
11080SOL     OW33417   5.826   2.594   8.124  0.2533  0.0640  0.0560
11080SOL    HW133418   5.782   2.505   8.137  2.1412 -1.0964 -0.9274
11080SOL    HW233419   5.762   2.658   8.082 -1.5683 -0.3503  2.0481
11081SOL     OW33420   5.985   7.699   7.997 -0.2728 -0.0291 -0.8098
11081SOL    HW133421   5.984   7.793   7.964 -0.8392  0.7224  1.1812
11081SOL    HW233422   5.903   7.682   8.052  0.4290 -1.2763 -0.0921
11082SOL     OW33423   4.493   2.901   0.259  0.9452  0.0094 -0.3758
11082SOL    HW133424   4.454   2.936   0.174  0.7342 -1.6096 -0.9669
11082SOL    HW233425   4.550   2.973   0.301 -3.1914  2.8270  1.0060
11083SOL     OW33426   4.359   0.375   4.527  0.1319  0.0809 -0.4684
11083SOL    HW133427   4.335   0.301   4.590  1.9010 -2.1511 -2.2965
11083SOL    HW233428   4.299   0.372   4.447 -2.3205  3.1073  1.0083
11084SOL     OW33429   6.938   1.660   1.685  0.5883 -0.3558 -0.3800
11084SOL    HW133430   6.858   1.717   1.701  2.4444  1.5089  3.9736
11084SOL    HW233431   6.911   1.564   1.680 -1.9356  0.1394  1.6081
11085SOL     OW33432   7.813   4.560   0.531 -0.2086 -0.5217 -0.1449
11085SOL    HW133433   7.771   4.649   0.550 -0.7040 -0.7247 -0.2744
11085SOL    HW233434   7.804   4.539   0.434  0.2625 -0.5338 -0.1852
11086SOL     OW33435   1.453   7.990   6.502 -0.7996  0.4045  0.7532
11086SOL    HW133436   1.373   8.015   6.556 -1.0298 -0.1466  0.6780
11086SOL    HW233437   1.534   8.036   6.538 -0.9965  0.2430  1.4080
11087SOL     OW33438   1.711   5.923   8.444  0.3255 -0.4180  0.7650
11087SOL    HW133439   1.742   5.828   8.434  1.6642  0.1693 -1.0749
11087SOL    HW233440   1.752   5.963   8.526 -0.5150 -1.4922  1.7516
11088SOL     OW33441   0.472   5.185   1.615  0.0911 -0.1333 -0.2850
11088SOL    HW133442   0.375   5.210   1.617  0.1939  0.2633 -0.2357
11088SOL    HW233443   0.518   5.225   1.694  0.7026  1.3438 -1.3581
11089SOL     OW33444   8.700   5.915   0.995  0.2081 -0.3244 -0.1857
11089SOL    HW133445   8.642   5.968   0.933  1.9368  1.3571 -0.4749
11089SOL    HW233446   8.651   5.834   1.026 -2.3621  1.1426 -0.1917
11090SOL     OW33447   6.176   5.161   7.104  0.2444  0.3909 -0.4960
11090SOL    HW133448   6.176   5.085   7.039  1.9132  1.3759 -1.7484
11090SOL    HW233449   6.219   5.241   7.061  1.2366  1.1484  1.7585
11091SOL     OW33450   7.062   3.509   3.409  0.0241 -0.4978 -0.0967
11091SOL    HW133451   7.080   3.411   3.418  0.2095 -0.5091 -0.5777
11091SOL    HW233452   7.146   3.555   3.379 -0.3956 -0.3687 -1.1055
11092SOL     OW33453   5.993   8.517   1.897 -0.1759 -0.2278  0.1251
11092SOL    HW133454   5.900   8.492   1.868 -0.4525 -1.2749  1.7762
11092SOL    HW233455   6.020   8.460   1.975  1.8293  0.1353 -0.2516
11093SOL     OW33456   6.090   5.897   3.623  0.5455  0.2190  0.3437
11093SOL    HW133457   6.106   5.911   3.526 -1.5840  1.0358  0.0657
11093SOL    HW233458   6.146   5.960   3.676  2.5163 -0.9431 -0.2471
11094SOL     OW33459   0.509   2.784   2.670  0.2408 -0.0278 -0.0488
11094SOL    HW133460   0.505   2.788   2.570  2.1989  1.4491 -0.1245
11094SOL    HW233461   0.566   2.707   2.698  0.5453  0.1669 -0.1229
11095SOL     OW33462   7.096   8.749   4.140 -0.2203 -0.5496 -0.0370
11095SOL    HW133463   7.106   8.676   4.072 -1.6519  0.0119 -0.8893
11095SOL    HW233464   7.153   8.826   4.115 -0.4747 -0.4820 -0.4259
11096SOL     OW33465   4.953   5.063   2.786  0.2765  0.0521  0.3024
11096SOL    HW133466   4.931   4.966   2.778 -0.0396  0.0491  1.0706
11096SOL    HW233467   4.907   5.114   2.714 -2.1218  0.0110  1.6896
11097SOL     OW33468   2.385   5.014   4.552 -0.1044  0.1993  0.6192
11097SOL    HW133469   2.446   5.038   4.475  0.7535  1.2060  1.5758
11097SOL    HW233470   2.304   5.072   4.548  0.0211  0.3741  0.5778
11098SOL     OW33471   7.378   0.314   1.421  0.1579  0.3342  0.5050
11098SOL    HW133472   7.434   0.260   1.358  2.2999  1.1111  1.6296
11098SOL    HW233473   7.364   0.406   1.383 -0.2986  0.1702  0.2679
11099SOL     OW33474   0.944   2.790   3.827 -0.3119  0.1462 -0.8036
11099SOL    HW133475   0.932   2.776   3.729  0.0652 -1.3052 -0.6663
11099SOL    HW233476   0.855   2.805   3.870 -0.8632 -2.3061 -0.9578
11100SOL     OW33477   4.726   6.390   6.392 -0.5891 -0.3620 -0.0491
11100SOL    HW133478   4.630   6.363   6.406 -0.7151  0.0877 -0.0248
11100SOL    HW233479   4.777   6.376   6.477 -1.2092  1.7727  0.7394
11101SOL     OW33480   3.949   5.638   2.194  0.3819 -0.0616 -0.4952
11101SOL    HW133481   4.045   5.632   2.168  0.5805 -0.8427  0.3800
11101SOL    HW233482   3.910   5.545   2.200 -0.3266  0.2281 -0.4892
11102SOL     OW33483   4.913   8.190   3.529 -0.4254  0.5401 -0.1083
11102SOL    HW133484   4.979   8.144   3.470 -1.1772 -1.6153  0.6541
11102SOL    HW233485   4.962   8.250   3.593  1.0636 -2.1922  1.5164
11103SOL     OW33486   3.015   5.209   8.114  0.0823 -0.1387  0.1514
11103SOL    HW133487   2.998   5.183   8.209  1.0864  0.3051  0.4706
11103SOL    HW233488   3.109   5.244   8.106 -0.2470  0.5395 -0.8469
11104SOL     OW33489   4.532   2.344   7.060 -0.5117  0.6503 -0.1555
11104SOL    HW133490   4.467   2.272   7.038 -1.0388  1.1170 -0.1603
11104SOL    HW233491   4.585   2.368   6.978  0.0502 -0.1066 -0.0177
11105SOL     OW33492   5.213   3.548   0.595 -0.0869  0.2624  0.5222
11105SOL    HW133493   5.303   3.574   0.629 -0.1043 -0.7835  1.4051
11105SOL    HW233494   5.224   3.496   0.510  0.0890  0.7928  0.2135
11106SOL     OW33495   7.519   5.990   5.441  0.3212  0.6879  0.4954
11106SOL    HW133496   7.555   5.936   5.516 -0.5683  0.6569  0.9111
11106SOL    HW233497   7.437   5.947   5.404 -0.5888  1.8853  1.0425
11107SOL     OW33498   4.612   4.272   1.434  0.0845 -0.4127  0.4196
11107SOL    HW133499   4.529   4.289   1.487  0.4916  3.6606  0.0962
11107SOL    HW233500   4.688   4.323   1.474  1.8040 -1.8610 -0.8420
11108SOL     OW33501   1.706   8.545   0.791  0.6440 -0.4585  0.0897
11108SOL    HW133502   1.671   8.485   0.863  0.8940  1.8832  2.3211
11108SOL    HW233503   1.784   8.597   0.826  2.4900 -1.0873 -2.7932
11109SOL     OW33504   4.878   5.032   3.385 -0.2903 -0.5203 -0.9541
11109SOL    HW133505   4.970   4.994   3.378 -0.0349  0.0753 -0.8327
11109SOL    HW233506   4.841   5.012   3.477  0.8117  1.6530  0.0199
11110SOL     OW33507   3.964   0.747   1.007 -0.1792  0.0812 -0.8588
11110SOL    HW133508   3.971   0.753   0.907 -1.0086 -0.3374 -0.9517
11110SOL    HW233509   4.054   0.725   1.045  0.2468  0.7082 -1.4688
11111SOL     OW33510   0.153   7.995   8.307  0.0168  0.6168 -0.1568
11111SOL    HW133511   0.216   7.956   8.240  2.2356  2.5446  0.6675
11111SOL    HW233512   0.173   7.957   8.397  1.0734  2.2718  0.3611
11112SOL     OW33513   1.278   1.537   1.211  0.0503  0.4651 -0.1410
11112SOL    HW133514   1.209   1.467   1.188  0.7922 -0.1951 -0.3954
11112SOL    HW233515   1.342   1.500   1.278 -0.0277  1.1953  0.3495
11113SOL     OW33516   6.282   4.933   1.003  0.0571 -0.4697  0.4968
11113SOL    HW133517   6.265   5.026   0.971  0.1627 -0.7517 -0.3937
11113SOL    HW233518   6.374   4.927   1.041  0.4112 -0.4349 -0.3311
11114SOL     OW33519   6.221   3.985   6.815  0.3502  0.1566  0.1684
11114SOL    HW133520   6.244   4.081   6.832  0.2721 -0.1861  2.4578
11114SOL    HW233521   6.304   3.930   6.817  0.4266  0.1623 -1.3821
11115SOL     OW33522   5.307   1.009   0.354  0.0367 -0.3503  0.0387
11115SOL    HW133523   5.387   0.970   0.307  0.1653 -0.2387  0.1642
11115SOL    HW233524   5.286   0.954   0.434  0.5119  0.1090  0.4859
11116SOL     OW33525   5.953   3.579   5.533  0.1891  0.0112 -0.2307
11116SOL    HW133526   6.024   3.511   5.515  0.7457  1.1763 -2.9739
11116SOL    HW233527   5.989   3.671   5.515 -1.6704  0.7164 -0.6025
11117SOL     OW33528   8.102   8.239   0.662 -0.5201 -0.0378  0.0041
11117SOL    HW133529   8.180   8.184   0.634 -0.6815 -1.3789  2.0346
11117SOL    HW233530   8.077   8.301   0.587  1.2645 -0.9062 -1.3893
11118SOL     OW33531   4.703   4.672   1.460 -0.0141  0.0127  0.2233
11118SOL    HW133532   4.728   4.593   1.404  0.2633 -0.4902  1.0407
11118SOL    HW233533   4.608   4.662   1.491 -0.6387  0.9757 -1.2856
11119SOL     OW33534   2.932   8.230   8.487 -0.3887 -0.0142  0.3182
11119SOL    HW133535   2.998   8.207   8.415 -0.3452 -0.0647  0.3742
11119SOL    HW233536   2.841   8.240   8.448 -0.0782  1.7834 -0.0733
11120SOL     OW33537   3.885   0.982   1.237 -0.7824 -0.0108 -0.2694
11120SOL    HW133538   3.827   0.926   1.297  1.5344  0.1976  2.4195
11120SOL    HW233539   3.975   0.939   1.230 -0.0705  1.5609 -1.1254
11121SOL     OW33540   4.889   3.465   4.445  0.3714  0.5605 -0.4418
11121SOL    HW133541   4.909   3.485   4.349  1.3052  0.3675 -0.2948
11121SOL    HW233542   4.813   3.400   4.450  1.0121 -0.2448 -1.0835
11122SOL     OW33543   5.939   4.342   2.564 -0.0758  0.1611 -0.2830
11122SOL    HW133544   5.868   4.409   2.585 -0.5581 -0.8046  1.2831
11122SOL    HW233545   5.953   4.338   2.465  0.3869  2.9597 -0.4059
11123SOL     OW33546   7.221   4.863   2.356 -0.2487 -0.7504  0.0487
11123SOL    HW133547   7.160   4.815   2.419  0.6820  0.2658  1.7864
11123SOL    HW233548   7.174   4.942   2.317  0.4940  1.3039  3.0310
11124SOL     OW33549   5.919   4.364   1.090  0.2512 -0.3886  0.2779
11124SOL    HW133550   5.947   4.351   1.185  3.5124 -2.6441 -0.8038
11124SOL    HW233551   5.852   4.295   1.065 -0.4370  0.0614  0.8604
11125SOL     OW33552   2.537   1.138   6.596 -0.4638 -0.3365  0.6460
11125SOL    HW133553   2.581   1.228   6.605 -1.0475  0.1118 -0.8084
11125SOL    HW233554   2.460   1.133   6.660 -2.1276  1.2907 -1.1118
11126SOL     OW33555   5.149   8.422   8.802  0.3989  0.3933  0.1146
11126SOL    HW133556   5.185   8.328   8.798  1.5229  0.8286 -0.7540
11126SOL    HW233557   5.218   8.485   8.768 -0.2314  1.5916  0.9836
11127SOL     OW33558   6.393   0.418   1.687 -0.2505  0.0685 -0.1299
11127SOL    HW133559   6.308   0.470   1.677  0.2824  0.7090 -1.7207
11127SOL    HW233560   6.430   0.431   1.779 -1.3911  0.5243  0.2794
11128SOL     OW33561   6.571   6.493   1.765  0.6605 -0.2349 -0.4116
11128SOL    HW133562   6.514   6.544   1.829  0.5749 -1.9162  0.8913
11128SOL    HW233563   6.557   6.530   1.673 -2.5098 -0.5224 -0.1625
11129SOL     OW33564   0.030   3.662   0.200 -0.2171  0.2785  0.2226
11129SOL    HW133565  -0.009   3.710   0.279 -0.1027  2.4418 -0.9689
11129SOL    HW233566   0.122   3.631   0.222 -0.6703 -0.3556  1.3557
11130SOL     OW33567   4.424   8.396   1.483 -0.2306 -0.3488 -0.1778
11130SOL    HW133568   4.361   8.471   1.506 -0.0010 -0.0362 -0.5651
11130SOL    HW233569   4.431   8.335   1.562  1.6522  1.4840  1.2060
11131SOL     OW33570   6.792   6.947   6.143  0.1872  0.1256  0.3636
11131SOL    HW133571   6.730   6.924   6.218 -1.0089  2.1373  0.0487
11131SOL    HW233572   6.739   6.983   6.066  1.7816  2.6055  0.3367
11132SOL     OW33573   7.234   0.491   3.924 -0.1880 -0.2890 -0.1232
11132SOL    HW133574   7.306   0.449   3.868  0.2889 -0.5331  0.6545
11132SOL    HW233575   7.181   0.419   3.968 -1.4495 -0.1420 -1.3097
11133SOL     OW33576   2.767   5.146   1.440 -0.1567  0.1122  0.3379
11133SOL    HW133577   2.700   5.206   1.484 -2.2949 -2.3631  0.7057
11133SOL    HW233578   2.830   5.110   1.510  0.6129  1.2363  0.2448
11134SOL     OW33579   3.748   0.737   4.359  0.5902 -0.1198 -0.0944
11134SOL    HW133580   3.687   0.742   4.437  1.6346  0.3873  0.7210
11134SOL    HW233581   3.830   0.685   4.384 -0.1356 -2.1742 -1.6331
11135SOL     OW33582   4.557   7.745   3.412 -0.9291 -0.5122 -0.2810
11135SOL    HW133583   4.524   7.737   3.318 -1.7253  1.2559 -0.1805
11135SOL    HW233584   4.481   7.771   3.472  0.1623  1.4166  0.3343
11136SOL     OW33585   4.005   5.999   7.036 -0.1890 -0.5169 -0.2458
11136SOL    HW133586   4.002   5.906   7.074 -0.7562 -0.8265 -1.0419
11136SOL    HW233587   3.937   6.056   7.082  0.5868 -0.3141  0.6844
11137SOL     OW33588   1.200   5.111   1.447 -0.1223  0.1322  0.1225
11137SOL    HW133589   1.207   5.202   1.487  0.7623 -0.6094  1.7910
11137SOL    HW233590   1.152   5.116   1.360 -0.3717  2.1318  0.3271
11138SOL     OW33591   1.598   5.628   2.915 -0.3849  0.1841 -0.2249
11138SOL    HW133592   1.517   5.571   2.927 -0.0185 -0.2734  0.1362
11138SOL    HW233593   1.614   5.679   3.000  0.5877 -0.9077  0.2851
11139SOL     OW33594   0.350   4.943   1.452  0.2847 -0.6385  0.5181
11139SOL    HW133595   0.378   4.998   1.531  2.1414 -0.4706 -0.2213
11139SOL    HW233596   0.420   4.875   1.432  0.3555 -0.0016 -1.6066
11140SOL     OW33597   7.453   8.300   5.450  0.0467  0.1994 -0.7805
11140SOL    HW133598   7.459   8.348   5.363  2.3278 -1.9729 -1.9370
11140SOL    HW233599   7.466   8.202   5.435  0.3127 -0.2684  2.0055
11141SOL     OW33600   8.099   3.107   2.268  0.0318  0.0089 -0.5435
11141SOL    HW133601   8.165   3.169   2.311 -1.4550  1.0397  0.3428
11141SOL    HW233602   8.012   3.154   2.258 -1.2172 -1.9904  0.3286
11142SOL     OW33603   0.989   1.868   8.025  0.8347  0.1258 -0.2872
11142SOL    HW133604   1.034   1.955   8.004 -0.5900  1.2576  1.0514
11142SOL    HW233605   1.028   1.831   8.109 -0.8749  1.3321  1.1235
11143SOL     OW33606   2.704   5.779   0.340  0.6453  0.1586 -0.2474
11143SOL    HW133607   2.654   5.708   0.390  0.0431 -0.9865 -2.3781
11143SOL    HW233608   2.639   5.845   0.303  0.9497  0.1452 -0.8029
11144SOL     OW33609   5.645   3.186   2.336  0.5328 -0.2398  0.3516
11144SOL    HW133610   5.639   3.249   2.258  2.0955 -0.4814  0.0067
11144SOL    HW233611   5.656   3.093   2.302 -0.0003 -0.4995  0.8725
11145SOL     OW33612   3.565   5.858   4.685 -0.5139 -0.1582 -0.3668
11145SOL    HW133613   3.473   5.842   4.649 -1.2959  0.5884  1.1596
11145SOL    HW233614   3.624   5.780   4.665 -1.2007 -0.2456 -2.1934
11146SOL     OW33615   6.028   4.927   4.180 -0.0613  0.3172  0.4866
11146SOL    HW133616   6.097   4.868   4.138  1.3420  1.5815  0.8924
11146SOL    HW233617   5.938   4.905   4.144  0.6466 -0.9173 -0.6038
11147SOL     OW33618   5.838   3.692   3.242  0.4879 -0.0428 -0.0775
11147SOL    HW133619   5.783   3.611   3.220 -2.5401  1.6416  0.7915
11147SOL    HW233620   5.872   3.684   3.335 -2.5818  0.9547  1.2633
11148SOL     OW33621   1.026   6.631   1.219  0.2729  0.0613  0.6821
11148SOL    HW133622   0.942   6.590   1.255 -1.2585  1.3649 -1.2252
11148SOL    HW233623   1.010   6.728   1.200  2.9058  0.9048  2.2843
11149SOL     OW33624   2.255   8.428   1.083  0.6125 -0.0307  0.2456
11149SOL    HW133625   2.196   8.348   1.084  0.9462 -0.2863 -0.0331
11149SOL    HW233626   2.350   8.399   1.068  0.6584  0.4661 -0.4722
11150SOL     OW33627   8.623   0.840   7.668  0.4778 -0.5818  0.7852
11150SOL    HW133628   8.602   0.884   7.581 -1.9733 -0.5243  1.3182
11150SOL    HW233629   8.717   0.808   7.668  1.4308  1.9717 -0.7567
11151SOL     OW33630   0.836   2.915   6.797 -0.7010  0.5163  0.7410
11151SOL    HW133631   0.821   2.990   6.732  3.5476  1.4943  0.5866
11151SOL    HW233632   0.842   2.829   6.747 -0.6531  0.7939  0.2535
11152SOL     OW33633   1.174   7.212   7.215  0.2241  0.4015  0.5890
11152SOL    HW133634   1.225   7.163   7.286  0.7907 -0.2673 -0.2626
11152SOL    HW233635   1.083   7.172   7.204 -0.3512  1.3086  1.7954
11153SOL     OW33636   2.859   8.090   7.991 -0.0991 -0.0423  0.1242
11153SOL    HW133637   2.874   8.185   8.016  2.1274 -0.2605 -0.1922
11153SOL    HW233638   2.889   8.031   8.066 -0.9231 -0.5250  0.0875
11154SOL     OW33639   5.708   4.002   7.339 -0.0254  0.0670  0.1237
11154SOL    HW133640   5.721   3.908   7.308 -0.4713 -0.3304  1.0914
11154SOL    HW233641   5.717   4.064   7.262  2.1668 -0.5877 -0.2165
11155SOL     OW33642   1.850   2.252   2.730 -0.5822  0.2702 -0.0364
11155SOL    HW133643   1.901   2.308   2.665  0.5723  3.0648  3.0062
11155SOL    HW233644   1.914   2.198   2.785 -1.4093 -0.6247  0.0888
11156SOL     OW33645   6.133   3.062   6.602  0.1491  0.5666  0.2461
11156SOL    HW133646   6.133   3.052   6.701 -0.2405  0.8775  0.2803
11156SOL    HW233647   6.139   2.972   6.560  0.6319  0.4548  0.5520
11157SOL     OW33648   8.323   6.582   3.667 -0.1812 -0.0126  0.1706
11157SOL    HW133649   8.225   6.565   3.664 -0.0305 -0.7581 -1.0502
11157SOL    HW233650   8.373   6.496   3.654  0.6032  0.6822 -1.7763
11158SOL     OW33651   6.659   1.004   0.456 -0.2963  0.0074 -0.0995
11158SOL    HW133652   6.662   0.990   0.357 -1.9287  1.9656 -0.4898
11158SOL    HW233653   6.674   1.101   0.476  1.2441 -0.5390  1.7068
11159SOL     OW33654   2.173   4.760   0.179  0.0184 -0.2031 -0.4032
11159SOL    HW133655   2.137   4.826   0.245 -0.0553  0.4866 -1.1237
11159SOL    HW233656   2.159   4.793   0.086  1.6192 -0.3703 -0.7487
11160SOL     OW33657   0.420   4.643   0.689  0.1595  0.2566  0.9645
11160SOL    HW133658   0.519   4.632   0.677 -0.0982 -1.5888  0.1748
11160SOL    HW233659   0.384   4.564   0.739 -0.9528  0.7950  1.0399
11161SOL     OW33660   3.260   8.247   1.925 -0.5572  0.5916  0.3081
11161SOL    HW133661   3.274   8.233   2.023 -0.4604  0.8569  0.3333
11161SOL    HW233662   3.205   8.330   1.911  0.5062  1.2717  0.0894
11162SOL     OW33663   0.224   0.064   2.567  0.0810  0.0070 -0.3729
11162SOL    HW133664   0.314   0.020   2.574  0.0041  0.0993  1.7560
11162SOL    HW233665   0.210   0.095   2.473  2.1290 -0.3042 -0.8377
11163SOL     OW33666   8.842   4.458   7.170  0.8609  0.1175 -0.3061
11163SOL    HW133667   8.903   4.390   7.131  3.1780  2.1449 -0.4065
11163SOL    HW233668   8.871   4.478   7.264  0.2787  1.0573 -0.3194
11164SOL     OW33669   7.655   2.324   3.303  0.2681  0.1916  0.2619
11164SOL    HW133670   7.592   2.284   3.236  1.1045 -1.6068  0.4721
11164SOL    HW233671   7.740   2.270   3.304  0.7938  0.9990  1.8086
11165SOL     OW33672   0.731   1.177   5.627 -0.3659 -0.0274  0.5682
11165SOL    HW133673   0.677   1.114   5.571  1.1746  0.1877 -1.2757
11165SOL    HW233674   0.828   1.155   5.618  0.6542  4.3136 -2.7853
11166SOL     OW33675   1.572   6.974   7.897  0.0356  0.5826 -0.5151
11166SOL    HW133676   1.629   7.002   7.820  0.8284  0.3619 -0.0116
11166SOL    HW233677   1.573   7.045   7.967  0.5084  0.1335 -0.0656
11167SOL     OW33678   6.152   0.004   2.329 -0.1648  0.6813  0.0709
11167SOL    HW133679   6.246  -0.018   2.302 -0.9957 -1.8040 -1.1074
11167SOL    HW233680   6.115   0.074   2.268  0.5427  0.8590 -0.1694
11168SOL     OW33681   4.963   6.006   7.363  0.4531 -0.0037  0.1744
11168SOL    HW133682   5.030   5.976   7.295  0.9147  2.0410 -0.3481
11168SOL    HW233683   5.001   5.996   7.455  0.2090 -1.8478  0.1027
11169SOL     OW33684   7.593   7.663   7.118 -0.0326  0.1272 -0.2161
11169SOL    HW133685   7.645   7.616   7.190  0.2170  0.4515 -0.1855
11169SOL    HW233686   7.652   7.729   7.072 -0.5985  0.9980  0.2809
11170SOL     OW33687   4.531   1.835   1.638 -0.7564 -0.0099 -0.4928
11170SOL    HW133688   4.511   1.807   1.544  0.5630 -2.5199 -0.1191
11170SOL    HW233689   4.614   1.890   1.640 -0.0166 -1.0810 -0.7180
11171SOL     OW33690   7.739   1.175   5.235 -0.5963  0.3344 -0.0934
11171SOL    HW133691   7.832   1.150   5.262 -0.3975 -0.5385 -1.4807
11171SOL    HW233692   7.673   1.117   5.284 -0.3415  0.0388 -0.0942
11172SOL     OW33693   4.141   0.070   7.674  0.2943 -0.1198  0.4514
11172SOL    HW133694   4.109   0.164   7.660  1.5767 -0.0708 -3.7245
11172SOL    HW233695   4.088   0.008   7.615  0.7791 -1.7156  1.6372
11173SOL     OW33696   1.124   5.385   7.665 -0.4325  0.0804  0.0096
11173SOL    HW133697   1.076   5.473   7.674 -1.9275 -0.6415 -0.4733
11173SOL    HW233698   1.219   5.401   7.640 -0.8783  1.5527 -0.8827
11174SOL     OW33699   7.913   0.396   8.779 -0.0017  0.4466  0.4047
11174SOL    HW133700   7.817   0.416   8.758 -0.3393 -2.3600 -1.1769
11174SOL    HW233701   7.922   0.366   8.874 -0.7394  0.4404  0.4749
11175SOL     OW33702   4.652   2.049   2.662  0.0733  0.5893  0.1568
11175SOL    HW133703   4.694   2.052   2.571 -0.0095 -1.1883  0.0326
11175SOL    HW233704   4.634   2.142   2.693  1.8578  1.3151 -0.8270
11176SOL     OW33705   6.972   6.792   3.545  0.0294  0.7069  0.2059
11176SOL    HW133706   6.908   6.757   3.477  0.5368  0.3476 -0.0949
11176SOL    HW233707   6.957   6.890   3.558 -0.4438  0.6650 -0.0099
11177SOL     OW33708   3.228   2.896   1.020  0.3492 -0.1200  0.3738
11177SOL    HW133709   3.260   2.902   0.925 -0.1162 -0.4086  0.1939
11177SOL    HW233710   3.241   2.803   1.054 -0.0053 -0.1630  0.3997
11178SOL     OW33711   8.630   4.153   4.436 -0.1944 -0.4971 -0.0959
11178SOL    HW133712   8.729   4.153   4.451 -0.3366  1.7437  1.3642
11178SOL    HW233713   8.611   4.148   4.337  1.6544  4.0427 -0.9280
11179SOL     OW33714   5.601   7.359   1.393  0.1528  0.2118  0.1505
11179SOL    HW133715   5.547   7.346   1.310 -0.1652  0.2713  0.3451
11179SOL    HW233716   5.569   7.297   1.464  0.3841  0.2026  0.2487
11180SOL     OW33717   1.181   3.550   0.085  0.1426  0.1092  0.2139
11180SOL    HW133718   1.138   3.486   0.147  1.0014  0.1176  0.8395
11180SOL    HW233719   1.120   3.626   0.067 -0.0935  0.1388  1.1056
11181SOL     OW33720   6.602   0.873   0.688 -0.3373 -0.0540 -0.2576
11181SOL    HW133721   6.527   0.933   0.715  1.3644  1.7368  0.7797
11181SOL    HW233722   6.628   0.893   0.594  0.6832  1.4290  0.3057
11182SOL     OW33723   5.737   8.150   8.716  0.1494 -0.1760 -0.4248
11182SOL    HW133724   5.664   8.161   8.784  0.8070  0.1115  0.2573
11182SOL    HW233725   5.819   8.199   8.748  1.1747 -1.8595 -0.3693
11183SOL     OW33726   4.482   1.366   0.588  0.4675 -0.6902 -0.1545
11183SOL    HW133727   4.451   1.358   0.493  0.2555 -0.5743 -0.0974
11183SOL    HW233728   4.468   1.279   0.635  0.2488 -0.6482 -0.1374
11184SOL     OW33729   4.483   0.984   5.718 -0.1416 -0.2440 -0.4146
11184SOL    HW133730   4.472   1.078   5.686 -0.8690 -0.4446 -0.7865
11184SOL    HW233731   4.437   0.922   5.654 -1.5884 -0.6735  0.9907
11185SOL     OW33732   3.963   3.710   1.548 -0.0719 -0.3396 -0.1883
11185SOL    HW133733   3.962   3.650   1.467 -0.8829  0.8409 -1.0798
11185SOL    HW233734   3.895   3.782   1.537 -0.1150 -0.0760  1.5185
11186SOL     OW33735   0.197   1.142   1.140  0.4961  0.3868  0.4556
11186SOL    HW133736   0.126   1.207   1.112  1.1608  1.5541  1.3878
11186SOL    HW233737   0.170   1.098   1.226  0.9468  0.9530  0.8982
11187SOL     OW33738   7.106   2.417   5.372  0.3764  0.2382  0.4371
11187SOL    HW133739   7.189   2.364   5.356  0.5389  1.2401 -2.7604
11187SOL    HW233740   7.027   2.365   5.339  0.0257  0.3276  1.1171
11188SOL     OW33741   0.736   0.640   4.000 -0.1275 -0.0190  0.3565
11188SOL    HW133742   0.718   0.548   3.965  1.8450 -1.0327  1.7887
11188SOL    HW233743   0.832   0.664   3.984 -0.1335  1.0169  1.6806
11189SOL     OW33744   4.183   6.550   2.191 -0.1192  0.0376  0.8737
11189SOL    HW133745   4.226   6.461   2.203 -1.9936 -1.0209  0.2385
11189SOL    HW233746   4.090   6.547   2.228 -0.6042  1.3659 -0.1621
11190SOL     OW33747   1.388   7.643   5.279 -0.1187  0.0782 -0.0037
11190SOL    HW133748   1.427   7.726   5.239 -0.5213 -0.3625 -1.3801
11190SOL    HW233749   1.461   7.585   5.315  0.4821 -0.4353 -1.9509
11191SOL     OW33750   0.174   5.687   3.103 -0.1368  0.2847  0.7287
11191SOL    HW133751   0.091   5.744   3.095 -0.0768  0.2841  0.0077
11191SOL    HW233752   0.253   5.739   3.069 -0.1588 -0.3891 -0.3782
11192SOL     OW33753   5.883   5.865   5.414  0.3391 -0.4281  0.1044
11192SOL    HW133754   5.807   5.869   5.349 -1.0792 -0.7299  1.6644
11192SOL    HW233755   5.942   5.787   5.391  0.6273  0.2517 -1.5714
11193SOL     OW33756   6.272   1.889   4.453  0.6087 -0.0103  0.1014
11193SOL    HW133757   6.236   1.975   4.418 -2.3588 -1.5360 -0.9263
11193SOL    HW233758   6.259   1.886   4.553  1.5980  1.0689  0.2780
11194SOL     OW33759   0.315   1.544   1.860  0.2796 -0.0945  0.4983
11194SOL    HW133760   0.367   1.616   1.814  0.1711  1.4186  2.6211
11194SOL    HW233761   0.271   1.581   1.942 -1.3835 -2.1419  0.6257
11195SOL     OW33762   7.432   6.973   6.522  0.2979  0.0322  0.2950
11195SOL    HW133763   7.416   7.008   6.614  1.0842  1.6969 -0.1672
11195SOL    HW233764   7.366   6.900   6.502  0.6408 -0.9616  2.4593
11196SOL     OW33765   2.659   5.254   0.008  0.1870  0.1964  0.4439
11196SOL    HW133766   2.750   5.224  -0.019  0.0695 -0.3831  0.6623
11196SOL    HW233767   2.600   5.174   0.020 -0.4302  0.5771  0.0191
11197SOL     OW33768   1.525   0.719   8.154 -0.1073 -0.1290  0.3630
11197SOL    HW133769   1.552   0.772   8.073 -1.8633 -1.6097 -1.2580
11197SOL    HW233770   1.450   0.766   8.201  1.2485  0.9985  1.5285
11198SOL     OW33771   7.605   5.293   2.274  0.1870 -0.6766 -0.1770
11198SOL    HW133772   7.620   5.351   2.354  0.6290 -1.5546  0.3941
11198SOL    HW233773   7.557   5.210   2.302  1.5046 -1.6122 -0.5583
11199SOL     OW33774   5.451   4.450   8.402  0.3249  0.4619  0.0779
11199SOL    HW133775   5.393   4.527   8.374  0.1113 -0.0554 -0.9760
11199SOL    HW233776   5.546   4.478   8.404  0.6359  0.0622 -3.3052
11200SOL     OW33777   6.213   0.852   4.529 -0.0124 -0.2733 -0.1384
11200SOL    HW133778   6.197   0.910   4.449  0.4149  0.8493  0.5630
11200SOL    HW233779   6.311   0.842   4.544 -0.0846  0.2890  0.7723
11201SOL     OW33780   3.773   2.878   8.157  0.1895 -0.2430 -0.4470
11201SOL    HW133781   3.848   2.864   8.221  1.1341 -2.0032 -1.8619
11201SOL    HW233782   3.778   2.971   8.121 -0.5864  0.9270  2.2130
11202SOL     OW33783   3.579   1.809   1.038  0.7812  0.5890  0.0220
11202SOL    HW133784   3.566   1.712   1.058  0.4876  0.8144  0.9538
11202SOL    HW233785   3.586   1.860   1.123 -0.4152  1.5613 -0.4268
11203SOL     OW33786   8.824   3.287   0.861  0.1383  0.7128 -0.5664
11203SOL    HW133787   8.762   3.214   0.832  0.0492  0.3278  0.5409
11203SOL    HW233788   8.770   3.370   0.879 -0.0827  0.3838  0.3778
11204SOL     OW33789   1.832   3.759   5.009 -0.1670 -0.2433  0.3607
11204SOL    HW133790   1.923   3.769   4.969 -0.0676  0.4601  0.7449
11204SOL    HW233791   1.801   3.664   5.000  0.4708 -0.4157 -0.0480
11205SOL     OW33792   4.519   4.523   3.225 -0.6239  0.3310  0.0936
11205SOL    HW133793   4.582   4.544   3.150 -0.5800 -0.1274  0.0036
11205SOL    HW233794   4.518   4.600   3.289  0.7281 -0.0355  0.5865
11206SOL     OW33795   8.409   8.799   1.788 -0.4505 -0.0314  0.0378
11206SOL    HW133796   8.492   8.747   1.806 -0.5878  0.4740  2.5146
11206SOL    HW233797   8.366   8.766   1.704  1.3177 -1.4698 -0.3519
11207SOL     OW33798   2.511   4.621   4.864  0.3889  0.1393 -0.0370
11207SOL    HW133799   2.573   4.691   4.901 -0.9441  1.1763  0.3194
11207SOL    HW233800   2.497   4.637   4.767 -0.9230  1.2164  0.2914
11208SOL     OW33801   6.256   1.470   5.078  0.2661 -0.6203  0.1893
11208SOL    HW133802   6.187   1.464   5.006 -0.6633  2.3643  0.6733
11208SOL    HW233803   6.259   1.385   5.129 -0.7683 -1.9446 -1.8254
11209SOL     OW33804   6.204   5.281   8.258 -0.9713 -0.0757  0.0670
11209SOL    HW133805   6.146   5.261   8.337 -1.9326  0.9963 -0.3427
11209SOL    HW233806   6.149   5.321   8.185  0.0307 -0.4189 -0.9028
11210SOL     OW33807   8.840   1.438   7.723 -0.1186 -0.2460 -0.3084
11210SOL    HW133808   8.837   1.357   7.664 -0.7279 -0.3282 -0.1787
11210SOL    HW233809   8.910   1.425   7.793  0.4646 -0.2349 -0.8824
11211SOL     OW33810   1.644   0.637   0.951 -0.1053  0.1409  0.6029
11211SOL    HW133811   1.620   0.551   0.907 -0.0132 -0.5033  1.7629
11211SOL    HW233812   1.584   0.710   0.918 -0.2362 -0.3820 -0.3301
11212SOL     OW33813   8.831   3.344   8.381  0.2052  0.2742  0.3859
11212SOL    HW133814   8.848   3.301   8.470  0.0506  1.0857  0.8103
11212SOL    HW233815   8.915   3.388   8.349  1.1886 -2.4836 -1.2893
11213SOL     OW33816   5.289   2.565   4.518 -0.2184 -0.1471 -0.5403
11213SOL    HW133817   5.276   2.657   4.554  3.5758  0.5125 -0.5192
11213SOL    HW233818   5.274   2.498   4.591  0.5316  0.7160  0.4270
11214SOL     OW33819   5.721   4.818   7.916 -0.4858  0.1242  0.0120
11214SOL    HW133820   5.793   4.834   7.848  1.1941 -0.7275  1.4934
11214SOL    HW233821   5.657   4.750   7.882  0.5392 -0.5711 -0.5770
11215SOL     OW33822   7.603   4.601   0.227  0.0292  0.2899 -0.8396
11215SOL    HW133823   7.640   4.676   0.282  1.3529 -0.3765 -0.7860
11215SOL    HW233824   7.531   4.636   0.168 -0.4773  1.2935  0.3200
11216SOL     OW33825   2.544   2.572   1.116 -0.0165  0.1919  0.4323
11216SOL    HW133826   2.449   2.574   1.147 -0.3843 -2.4373 -0.2698
11216SOL    HW233827   2.602   2.531   1.188  0.2049 -0.1924  0.0381
11217SOL     OW33828   1.418   2.538   2.713  0.0384 -0.2703 -0.0769
11217SOL    HW133829   1.475   2.596   2.771  0.1770  0.3879 -0.8571
11217SOL    HW233830   1.366   2.595   2.649 -1.3294 -0.8683  0.4523
11218SOL     OW33831   4.789   2.988   2.228 -0.0503 -0.1013 -0.0767
11218SOL    HW133832   4.838   2.946   2.152 -0.3805  1.0534 -0.9524
11218SOL    HW233833   4.848   3.056   2.272  0.9035 -2.1482  2.0536
11219SOL     OW33834   7.494   3.799   6.897 -0.2287  0.0964 -0.4507
11219SOL    HW133835   7.430   3.832   6.967 -0.5484 -4.0596  1.5313
11219SOL    HW233836   7.442   3.768   6.817 -0.3650  0.1685 -0.3911
11220SOL     OW33837   3.892   3.147   3.838 -0.2812  0.2262  0.1464
11220SOL    HW133838   3.910   3.110   3.746  1.8821 -0.4182  0.7730
11220SOL    HW233839   3.843   3.233   3.829  0.9039  0.7818 -1.7119
11221SOL     OW33840   6.178   6.013   1.758 -0.2783  0.0434  0.0383
11221SOL    HW133841   6.231   6.066   1.824  0.2890 -1.1482  0.5800
11221SOL    HW233842   6.128   5.941   1.806 -0.8250 -0.0847 -0.7031
11222SOL     OW33843   3.342   3.437   1.583 -0.1008  0.0711  0.2867
11222SOL    HW133844   3.397   3.520   1.592 -1.0139  0.9642 -1.7636
11222SOL    HW233845   3.380   3.381   1.508  0.1107 -1.0723  1.2153
11223SOL     OW33846   1.684   5.807   4.229 -0.2784 -0.0435  0.2019
11223SOL    HW133847   1.637   5.843   4.149 -0.4692 -0.1458  0.2666
11223SOL    HW233848   1.621   5.805   4.307  0.2659  1.2954  0.7035
11224SOL     OW33849   2.737   5.647   0.959 -0.1863 -0.0925  0.2959
11224SOL    HW133850   2.753   5.605   0.870  0.9853 -0.7955  0.8171
11224SOL    HW233851   2.801   5.722   0.972 -0.4021  0.0523  0.5277
11225SOL     OW33852   2.159   7.087   3.621  0.0546 -0.4583 -0.0195
11225SOL    HW133853   2.161   7.172   3.673 -0.1309  0.1282 -0.9491
11225SOL    HW233854   2.137   7.107   3.526 -0.3872 -1.5880 -0.1728
11226SOL     OW33855   2.829   5.843   7.704 -0.0432 -0.2004  0.0901
11226SOL    HW133856   2.776   5.925   7.723 -0.4391 -0.5222  0.3908
11226SOL    HW233857   2.915   5.868   7.659  0.3180  0.4724  1.1206
11227SOL     OW33858   5.122   1.077   6.454 -0.6467  0.0469 -0.1509
11227SOL    HW133859   5.184   1.029   6.516 -0.4982  1.4649  0.8527
11227SOL    HW233860   5.110   1.024   6.370  0.2310 -1.2631  0.5238
11228SOL     OW33861   3.330   1.163   7.312  0.0707 -0.4079 -0.1637
11228SOL    HW133862   3.240   1.200   7.289  0.0555 -0.6610 -0.5169
11228SOL    HW233863   3.323   1.064   7.325  0.4228 -0.5279 -0.8643
11229SOL     OW33864   4.873   1.866   0.614  0.1905  0.3000 -0.0481
11229SOL    HW133865   4.835   1.935   0.552 -0.2026  0.3794  0.2708
11229SOL    HW233866   4.800   1.831   0.673  0.0531 -1.4423 -1.1618
11230SOL     OW33867   4.703   3.688   6.185 -0.3089  0.1071  0.2330
11230SOL    HW133868   4.707   3.783   6.154 -0.3675 -0.5151 -1.8809
11230SOL    HW233869   4.796   3.655   6.204 -0.1747  0.2527 -0.1619
11231SOL     OW33870   6.033   7.615   2.673  0.3030 -0.1254  0.4336
11231SOL    HW133871   6.057   7.709   2.652 -0.5485 -0.0881 -0.4411
11231SOL    HW233872   6.077   7.554   2.606  1.2022 -0.4067  1.2486
11232SOL     OW33873   1.210   5.961   7.056 -0.4823 -0.2555 -0.2824
11232SOL    HW133874   1.274   5.887   7.080 -0.5528 -0.3545 -0.3986
11232SOL    HW233875   1.144   5.973   7.130  0.2170  0.4585  0.2470
11233SOL     OW33876   0.939   4.451   8.277 -0.1013 -0.0246  0.2837
11233SOL    HW133877   0.907   4.393   8.352 -1.0010  2.1501  1.6685
11233SOL    HW233878   1.033   4.481   8.296 -0.1184  0.0565  0.2391
11234SOL     OW33879   3.155   4.311   2.759  0.1026  0.2611 -0.1858
11234SOL    HW133880   3.102   4.238   2.716  0.5632 -0.1769 -0.0206
11234SOL    HW233881   3.233   4.271   2.808  0.6676  0.8993 -0.5363
11235SOL     OW33882   7.808   0.777   2.575 -0.9108 -0.2858 -0.2127
11235SOL    HW133883   7.788   0.685   2.609  0.0175 -0.3244  0.2508
11235SOL    HW233884   7.875   0.771   2.501  0.6726  0.1415  1.1397
11236SOL     OW33885   0.086   2.341   2.488 -0.4567  0.5409 -0.2850
11236SOL    HW133886  -0.003   2.350   2.443 -0.4336  0.7076 -0.2982
11236SOL    HW233887   0.153   2.401   2.443 -0.5405  1.0511  0.2473
11237SOL     OW33888   2.972   2.421   4.306  0.1557  1.0366 -0.2132
11237SOL    HW133889   2.874   2.401   4.311 -0.0374  1.6523 -1.1623
11237SOL    HW233890   2.992   2.500   4.363 -0.0960  1.5313 -0.7960
11238SOL     OW33891   6.052   3.346   6.071  0.1249  0.1834 -0.0021
11238SOL    HW133892   6.107   3.429   6.062 -0.1012  0.3050 -0.2674
11238SOL    HW233893   6.007   3.345   6.160  0.8738 -0.1128  0.3822
11239SOL     OW33894   6.494   3.511   8.731  0.3274 -0.5936  0.1923
11239SOL    HW133895   6.542   3.574   8.672 -2.2473 -0.3291 -1.8241
11239SOL    HW233896   6.552   3.432   8.750  1.9420  0.2267 -1.0778
11240SOL     OW33897   1.858   7.052   3.437 -0.3854  0.1756 -0.0217
11240SOL    HW133898   1.807   6.997   3.504 -0.1139  0.2869  0.2797
11240SOL    HW233899   1.807   7.136   3.419  0.5129  1.1273  1.6248
11241SOL     OW33900   6.702   4.321   3.769 -0.6555 -0.4020  0.5351
11241SOL    HW133901   6.747   4.350   3.685  0.7543  0.6816  1.6095
11241SOL    HW233902   6.757   4.350   3.848 -2.1059 -1.0737  1.8460
11242SOL     OW33903   5.856   3.807   7.969  0.0172  0.1931  0.7762
11242SOL    HW133904   5.937   3.748   7.972 -0.2388 -0.1893  0.3614
11242SOL    HW233905   5.855   3.856   7.882  0.7719  1.6015  1.5329
11243SOL     OW33906   2.908   6.013   6.419  0.2555 -0.3385 -0.3340
11243SOL    HW133907   2.945   5.944   6.481 -0.2844  0.2031  0.6224
11243SOL    HW233908   2.842   5.971   6.357  1.9447 -1.1841 -1.6189
11244SOL     OW33909   1.095   2.123   8.819  0.0603 -0.3520 -0.2091
11244SOL    HW133910   1.055   2.160   8.902  0.9222 -0.5428  0.3071
11244SOL    HW233911   1.049   2.038   8.794  0.6401 -0.9927  0.8283
11245SOL     OW33912   7.704   4.760   4.390  0.0522  0.0597  0.7738
11245SOL    HW133913   7.674   4.666   4.377  0.1022  0.1603 -0.1620
11245SOL    HW233914   7.670   4.794   4.478 -2.1771 -0.0007  0.0103
11246SOL     OW33915   3.840   3.871   8.542  0.6290 -0.4518  0.4257
11246SOL    HW133916   3.824   3.935   8.617 -0.4964  0.0872 -0.2476
11246SOL    HW233917   3.755   3.823   8.521  0.4877  0.5478 -1.5270
11247SOL     OW33918   7.173   3.365   5.314  0.7944  0.1053  0.1930
11247SOL    HW133919   7.156   3.419   5.231  0.5207  0.5700  0.5477
11247SOL    HW233920   7.269   3.338   5.317  0.4025 -1.6882 -1.3273
11248SOL     OW33921   2.960   7.408   1.707  0.1096  0.0656  0.0709
11248SOL    HW133922   2.899   7.331   1.723  1.6427 -0.7563  2.5115
11248SOL    HW233923   3.037   7.379   1.651  0.1959  0.0724  0.1852
11249SOL     OW33924   5.974   7.137   4.856  0.0344  0.1961  0.0517
11249SOL    HW133925   6.010   7.080   4.783 -0.4630 -1.0476  0.7436
11249SOL    HW233926   6.033   7.130   4.936 -0.9624 -0.7738  0.7304
11250SOL     OW33927   3.443   0.730   4.831 -0.3143  0.2137  0.0943
11250SOL    HW133928   3.371   0.661   4.824  0.2667 -0.4079  0.1487
11250SOL    HW233929   3.517   0.694   4.887  0.0707  0.8283 -0.0171
11251SOL     OW33930   7.256   8.205   0.280 -0.0239  0.5290  0.2620
11251SOL    HW133931   7.183   8.156   0.326 -0.2857 -1.6673 -2.2365
11251SOL    HW233932   7.221   8.293   0.246 -0.7848  0.5649  1.0994
11252SOL     OW33933   0.636   6.811   1.229  0.1768 -0.0835  0.0118
11252SOL    HW133934   0.553   6.801   1.284 -0.4034  0.5459 -0.7267
11252SOL    HW233935   0.616   6.867   1.148  0.4218 -2.7359 -2.0465
11253SOL     OW33936   7.913   6.066   8.215 -0.1518  0.0589 -0.3991
11253SOL    HW133937   7.916   5.978   8.167  0.3956  0.4551 -1.1146
11253SOL    HW233938   7.995   6.118   8.193 -0.2202  0.5349  0.4445
11254SOL     OW33939   1.967   6.817   7.282 -0.2496 -0.4564  0.0171
11254SOL    HW133940   1.917   6.811   7.196 -1.4278 -0.3610  0.6802
11254SOL    HW233941   2.063   6.791   7.266  0.0518  1.4869 -1.7133
11255SOL     OW33942   8.198   3.949   4.345 -0.0808  0.0591  0.0506
11255SOL    HW133943   8.101   3.929   4.325 -1.2779  1.9991  3.2949
11255SOL    HW233944   8.218   4.044   4.321  0.1927  0.4983  1.8922
11256SOL     OW33945   7.837   5.294   5.360 -0.1854  0.1740  0.1192
11256SOL    HW133946   7.802   5.234   5.288  0.9293  1.0144 -1.1772
11256SOL    HW233947   7.915   5.346   5.325  0.0056  1.0640  1.7629
11257SOL     OW33948   4.754   0.593   5.433  0.2182  0.0677 -0.2243
11257SOL    HW133949   4.795   0.685   5.431  0.2432  0.0452 -2.1490
11257SOL    HW233950   4.815   0.528   5.387 -0.3102 -0.7085  0.1521
11258SOL     OW33951   3.452   4.049   1.440  0.1756  0.2802 -0.2272
11258SOL    HW133952   3.509   4.054   1.521 -1.2675  1.2017  0.7862
11258SOL    HW233953   3.382   3.979   1.452 -1.0426  1.4986  0.0391
11259SOL     OW33954   1.945   2.585   1.364  0.4583  0.5771 -0.1403
11259SOL    HW133955   1.900   2.525   1.297 -0.5272 -0.3854  1.3254
11259SOL    HW233956   2.010   2.532   1.418 -0.0568  0.9269  0.8383
11260SOL     OW33957   3.239   0.244   2.760 -0.1460  0.1130  0.6028
11260SOL    HW133958   3.233   0.287   2.851  0.5255 -0.3473  0.8664
11260SOL    HW233959   3.147   0.239   2.720 -0.3517  1.0034  0.9351
11261SOL     OW33960   8.784   4.322   0.503 -0.3578  0.3650 -0.0843
11261SOL    HW133961   8.776   4.412   0.460 -1.5895 -0.1175 -0.9258
11261SOL    HW233962   8.715   4.260   0.464  1.4049 -1.3749 -0.6036
11262SOL     OW33963   2.993   3.011   7.564 -0.2807 -0.3092  0.4311
11262SOL    HW133964   3.055   3.090   7.567 -0.0991 -0.4915  2.6408
11262SOL    HW233965   3.046   2.927   7.562 -0.4776 -0.4586 -1.8893
11263SOL     OW33966   5.002   1.949   2.297  0.1736  0.2032 -0.0696
11263SOL    HW133967   4.949   1.961   2.213 -0.4465 -0.6046  0.1968
11263SOL    HW233968   5.091   1.992   2.286 -0.7696  2.2135 -0.2837
11264SOL     OW33969   0.507   1.116   0.197 -0.0341  0.1349 -0.4021
11264SOL    HW133970   0.432   1.062   0.237 -0.0277  1.0228  0.8588
11264SOL    HW233971   0.590   1.060   0.196 -0.4338 -0.4721 -0.7578
11265SOL     OW33972   3.772   0.788   5.800  0.6849  0.1856 -0.4366
11265SOL    HW133973   3.850   0.851   5.793  0.3029  0.5409 -1.8132
11265SOL    HW233974   3.805   0.694   5.809  1.3362  0.6172  4.0105
11266SOL     OW33975   5.481   7.015   0.930 -0.4048  0.6610 -0.5238
11266SOL    HW133976   5.542   7.083   0.970  0.5852 -0.5843  0.1840
11266SOL    HW233977   5.531   6.963   0.861 -1.2080  0.7930 -1.2119
11267SOL     OW33978   3.313   6.077   0.225  0.1154  0.6249  0.2902
11267SOL    HW133979   3.283   5.989   0.260  1.7748  0.4274  1.3092
11267SOL    HW233980   3.307   6.146   0.298 -1.7934  1.5692 -0.6640
11268SOL     OW33981   2.876   1.445   8.429  0.0432  0.1398 -0.1058
11268SOL    HW133982   2.970   1.451   8.394 -0.7552  1.1609 -2.2971
11268SOL    HW233983   2.861   1.354   8.468  1.3775 -0.7495 -1.5269
11269SOL     OW33984   8.122   0.124   0.750 -0.8147 -0.0097 -0.0964
11269SOL    HW133985   8.089   0.201   0.804  1.0812 -0.0153  1.1637
11269SOL    HW233986   8.083   0.039   0.785 -0.1781  0.0618  0.8134
11270SOL     OW33987   3.529   2.555   3.347 -0.0521  0.1751 -0.1963
11270SOL    HW133988   3.566   2.491   3.279 -0.1125  0.0626 -0.1229
11270SOL    HW233989   3.515   2.644   3.304 -0.0692  0.1105 -0.3266
11271SOL     OW33990   4.156   8.303   3.364  0.1323 -0.1289 -0.0980
11271SOL    HW133991   4.086   8.245   3.405  0.5083 -0.2289  0.4175
11271SOL    HW233992   4.200   8.255   3.289  1.4279 -1.1160  1.2228
11272SOL     OW33993   0.627   8.777   1.581  0.6852  0.2729 -0.2993
11272SOL    HW133994   0.553   8.750   1.520  0.6549 -1.0840  0.2928
11272SOL    HW233995   0.589   8.822   1.662  0.6766  1.4752 -0.9632
11273SOL     OW33996   1.297   2.304   8.041  0.6469 -0.1740  0.1230
11273SOL    HW133997   1.314   2.210   8.012 -0.8968 -0.6954  0.8181
11273SOL    HW233998   1.301   2.309   8.141  0.4759  0.4484  0.1020
11274SOL     OW33999   5.517   5.125   8.775  0.4432 -0.2433 -0.2259
11274SOL    HW134000   5.450   5.086   8.839 -0.6371 -0.6873 -1.5737
11274SOL    HW234001   5.546   5.055   8.710  1.8401  0.0924  0.0147
11275SOL     OW34002   2.377   3.474   8.603 -0.4235 -0.2488  0.4488
11275SOL    HW134003   2.287   3.510   8.582 -0.3582  0.1166  0.7882
11275SOL    HW234004   2.446   3.546   8.591 -0.2339 -0.3940  0.6470
11276SOL     OW34005   5.448   3.771   1.288  0.6885  0.4653 -0.0102
11276SOL    HW134006   5.472   3.789   1.383 -0.2879 -0.4977  0.4395
11276SOL    HW234007   5.529   3.781   1.231  1.2122  1.4014  0.8629
11277SOL     OW34008   6.761   5.722   5.674 -0.0311 -0.1222 -0.3137
11277SOL    HW134009   6.797   5.696   5.763 -0.7004  3.4447  1.1584
11277SOL    HW234010   6.836   5.754   5.616  0.0722  0.2871  0.0403
11278SOL     OW34011   8.104   6.963   4.248 -0.4899  0.5303  0.4683
11278SOL    HW134012   8.041   6.886   4.257 -1.2500  0.7991 -2.0097
11278SOL    HW234013   8.053   7.047   4.230  0.4622  1.2227  0.8812
11279SOL     OW34014   4.223   4.949   5.212  0.0448 -0.0510 -0.1479
11279SOL    HW134015   4.150   5.003   5.252  0.2319  0.5714 -0.6309
11279SOL    HW234016   4.296   5.009   5.181  0.5700 -0.6350 -0.0562
11280SOL     OW34017   0.427   5.016   2.229  0.5721  0.0375 -0.2256
11280SOL    HW134018   0.463   5.010   2.136  0.9423  0.3628 -0.1044
11280SOL    HW234019   0.367   4.938   2.247 -0.7880  0.7995 -1.2865
11281SOL     OW34020   7.487   8.719   6.302  0.3342 -0.0758  0.3061
11281SOL    HW134021   7.505   8.656   6.227 -0.5841 -1.2312  1.0153
11281SOL    HW234022   7.573   8.742   6.348  0.8634  0.4173 -0.9096
11282SOL     OW34023   0.801   0.880   7.749  0.1722 -0.4577 -0.2156
11282SOL    HW134024   0.871   0.892   7.819  1.2669 -0.8522 -1.2089
11282SOL    HW234025   0.845   0.862   7.661 -1.1910 -0.9214 -0.8244
11283SOL     OW34026   1.945   5.051   2.090 -0.4654  0.6485 -0.0735
11283SOL    HW134027   2.028   5.047   2.146  0.4229 -0.3733 -1.4041
11283SOL    HW234028   1.869   5.010   2.140  0.3262 -0.3060  0.3777
11284SOL     OW34029   3.399   2.559   5.130  0.7995 -0.0727 -0.3610
11284SOL    HW134030   3.306   2.573   5.099  0.9317 -0.1273 -0.7875
11284SOL    HW234031   3.429   2.638   5.184  0.8640  0.4091 -1.0958
11285SOL     OW34032   1.285   4.650   1.615 -0.1351  0.0147  0.0824
11285SOL    HW134033   1.232   4.569   1.639  1.0226  0.0990  3.5395
11285SOL    HW234034   1.321   4.692   1.698  5.0737  0.1345 -1.8403
11286SOL     OW34035   0.485   3.939   0.893  0.6454  0.0518  0.0125
11286SOL    HW134036   0.503   3.916   0.797  0.3754  1.6751 -0.4522
11286SOL    HW234037   0.564   3.913   0.948  0.7327 -1.0755 -0.6043
11287SOL     OW34038   5.443   5.152   8.092  0.1855 -0.1762 -0.5094
11287SOL    HW134039   5.394   5.106   8.167  0.6129  0.1914  0.0008
11287SOL    HW234040   5.536   5.115   8.086 -0.0653 -0.7131 -1.3324
11288SOL     OW34041   3.522   4.885   4.104  0.2499 -0.3634 -0.0407
11288SOL    HW134042   3.434   4.891   4.149  0.1172  1.0401 -0.4337
11288SOL    HW234043   3.591   4.936   4.157  0.2374  0.7231 -1.0166
11289SOL     OW34044   3.303   7.303   3.976  0.2044 -0.2190  0.4934
11289SOL    HW134045   3.219   7.268   4.016 -0.9271  0.8083 -0.8495
11289SOL    HW234046   3.319   7.397   4.008 -0.5902  0.5309 -1.1793
11290SOL     OW34047   6.569   4.276   8.482 -0.3094 -0.6756 -0.4066
11290SOL    HW134048   6.524   4.218   8.415 -0.9090  0.7561 -1.2956
11290SOL    HW234049   6.501   4.328   8.533  0.2558  0.8162 -1.1156
11291SOL     OW34050   7.442   0.974   0.161 -0.1419  0.0248 -0.0820
11291SOL    HW134051   7.471   0.896   0.106  0.4723 -0.0908  0.3921
11291SOL    HW234052   7.490   1.056   0.129  0.8481 -0.1912  0.7905
11292SOL     OW34053   0.773   7.738   2.455 -0.0514 -0.0291 -0.3314
11292SOL    HW134054   0.756   7.815   2.517  2.5381 -0.9834  1.7431
11292SOL    HW234055   0.802   7.773   2.366  0.8111  1.4440  0.4844
11293SOL     OW34056   7.782   0.958   0.241  0.2683 -0.2069  0.1094
11293SOL    HW134057   7.766   1.023   0.315  0.3508 -0.6082  0.4893
11293SOL    HW234058   7.865   0.906   0.260  1.1310  0.7094 -1.0169
11294SOL     OW34059   1.237   1.529   0.122 -0.7291  0.1730  0.0751
11294SOL    HW134060   1.181   1.492   0.196 -0.0896  1.3706  1.1971
11294SOL    HW234061   1.292   1.456   0.082 -2.7173 -0.9469 -0.7712
11295SOL     OW34062   5.702   0.668   4.626 -0.0004  0.5444  0.6009
11295SOL    HW134063   5.700   0.570   4.642 -2.3042  0.3990 -0.2052
11295SOL    HW234064   5.797   0.698   4.614  0.7468 -1.5443  0.8949
11296SOL     OW34065   3.174   4.239   8.265  0.4292 -0.0702 -0.6032
11296SOL    HW134066   3.227   4.179   8.324  0.0097 -0.1609 -0.3085
11296SOL    HW234067   3.217   4.245   8.175  0.3168 -1.0568 -0.7384
11297SOL     OW34068   5.503   6.742   3.719 -0.0117 -0.2578 -0.1766
11297SOL    HW134069   5.441   6.755   3.797  1.7881  1.2034  1.1055
11297SOL    HW234070   5.465   6.786   3.638 -1.6462 -1.2883 -0.0091
11298SOL     OW34071   5.823   3.040   4.542  0.1961  0.1354 -0.4924
11298SOL    HW134072   5.822   3.122   4.598  1.3311 -1.0744  1.4058
11298SOL    HW234073   5.744   2.983   4.565 -1.3598  1.2078 -2.7622
11299SOL     OW34074   1.708   6.987   4.949  0.3958 -0.1844 -0.6311
11299SOL    HW134075   1.644   6.911   4.936 -0.5207  0.1392  1.4848
11299SOL    HW234076   1.678   7.066   4.895 -0.0518 -0.5653 -0.9407
11300SOL     OW34077   1.498   8.654   4.332  0.0656  0.8705  0.0579
11300SOL    HW134078   1.561   8.627   4.260  0.5448 -0.2745  0.8825
11300SOL    HW234079   1.453   8.573   4.370 -0.6633  1.5132  0.6062
11301SOL     OW34080   0.012   8.666   2.487 -0.7351  0.2991 -0.3746
11301SOL    HW134081   0.076   8.691   2.560 -0.8939  0.0022 -0.1301
11301SOL    HW234082   0.061   8.616   2.416 -0.7380 -0.1408 -0.0719
11302SOL     OW34083   8.361   0.294   1.119 -0.3705  0.1919  0.2496
11302SOL    HW134084   8.389   0.383   1.083  0.7277 -0.8535 -1.6593
11302SOL    HW234085   8.268   0.274   1.089  0.0090 -0.0235 -0.8468
11303SOL     OW34086   5.819   3.322   3.693 -0.3674  0.5463  0.6696
11303SOL    HW134087   5.862   3.233   3.704 -0.4810  0.1709 -1.4760
11303SOL    HW234088   5.800   3.338   3.596 -2.2448  2.0224  1.2171
11304SOL     OW34089   3.897   2.237   3.704  0.4261  0.7160 -0.1751
11304SOL    HW134090   3.984   2.224   3.656  0.3591  1.3074 -0.4639
11304SOL    HW234091   3.834   2.164   3.678  0.5676  0.7356 -0.5925
11305SOL     OW34092   3.760   4.103   3.026  0.2422  0.1202  0.4408
11305SOL    HW134093   3.818   4.128   2.948  1.3985 -3.0314  0.1519
11305SOL    HW234094   3.817   4.066   3.099 -0.9350  2.0712  2.4872
11306SOL     OW34095   0.619   4.355   0.910 -0.0216  0.5189 -0.6176
11306SOL    HW134096   0.622   4.431   0.976  1.6104 -2.2612  2.8700
11306SOL    HW234097   0.536   4.301   0.926  0.0041  0.2414 -1.4208
11307SOL     OW34098   1.036   3.725   8.639 -0.7088  0.1152  0.1750
11307SOL    HW134099   1.133   3.704   8.633 -0.4909  1.3603 -1.1934
11307SOL    HW234100   1.015   3.760   8.730 -0.1533 -1.3442  0.8967
11308SOL     OW34101   2.487   6.928   6.787 -0.0405 -0.3787 -0.0709
11308SOL    HW134102   2.388   6.922   6.800 -0.3094  1.2132 -1.1619
11308SOL    HW234103   2.506   6.974   6.701  1.6704 -1.0585 -0.0853
11309SOL     OW34104   2.952   4.789   7.961 -0.3061 -0.0642 -0.0285
11309SOL    HW134105   3.049   4.781   7.986 -0.3059 -2.3934 -0.6011
11309SOL    HW234106   2.926   4.886   7.964  1.9744  0.6168  0.2983
11310SOL     OW34107   3.638   3.210   8.629  0.4802 -0.2852 -0.1034
11310SOL    HW134108   3.545   3.187   8.657  0.2334  0.2196 -0.4833
11310SOL    HW234109   3.699   3.209   8.708  0.2838 -1.2403  0.0460
11311SOL     OW34110   3.428   5.449   7.401  0.2212  0.6428 -0.3747
11311SOL    HW134111   3.501   5.517   7.398 -0.1017  1.4057  3.5616
11311SOL    HW234112   3.341   5.494   7.417 -0.0652 -0.5864  1.9277
11312SOL     OW34113   3.028   4.932   8.653  0.3092 -0.3190 -0.1138
11312SOL    HW134114   2.933   4.929   8.683  0.8853 -0.8740  1.8308
11312SOL    HW234115   3.036   4.897   8.560 -1.2343 -1.2795  0.0970
11313SOL     OW34116   4.433   6.365   4.638 -0.3839 -0.5827  0.0450
11313SOL    HW134117   4.464   6.389   4.730 -0.6989 -0.2219  0.0610
11313SOL    HW234118   4.414   6.267   4.634 -0.3817 -0.5989  0.3693
11314SOL     OW34119   8.661   4.450   4.505 -0.3072  0.9963  0.6458
11314SOL    HW134120   8.641   4.477   4.599  2.0892 -0.8079  1.7897
11314SOL    HW234121   8.640   4.353   4.493  2.9567  0.1937  0.5803
11315SOL     OW34122   6.564   4.653   4.284  0.6812  0.4643  0.5141
11315SOL    HW134123   6.517   4.706   4.355  0.9106  1.8860 -0.3546
11315SOL    HW234124   6.519   4.564   4.273 -0.3515  0.8736  1.2925
11316SOL     OW34125   4.684   7.672   2.506 -0.5137 -0.1386 -0.0261
11316SOL    HW134126   4.623   7.701   2.432 -1.0869  1.1177  0.8897
11316SOL    HW234127   4.731   7.588   2.480  0.9075  1.3569 -2.6982
11317SOL     OW34128   6.670   2.681   6.768  0.2127 -0.4169 -0.4872
11317SOL    HW134129   6.717   2.769   6.770  1.0629 -0.8583  1.8634
11317SOL    HW234130   6.723   2.616   6.712 -0.3718  0.4813 -2.1519
11318SOL     OW34131   5.793   7.080   8.444 -0.3896  0.1647 -0.0617
11318SOL    HW134132   5.868   7.060   8.508  1.3662  2.4718 -1.2400
11318SOL    HW234133   5.797   7.017   8.367  0.9790  0.8068 -0.5560
11319SOL     OW34134   3.443   3.635   4.328  0.1181 -0.2590 -0.4467
11319SOL    HW134135   3.460   3.543   4.293  2.0010  0.1742 -0.8038
11319SOL    HW234136   3.347   3.644   4.354 -0.6160 -1.6063 -2.4598
11320SOL     OW34137   3.757   2.742   2.673 -0.7191 -0.0089  0.3319
11320SOL    HW134138   3.814   2.760   2.592 -1.2079  1.6454  0.3077
11320SOL    HW234139   3.787   2.658   2.717  1.7316  0.7594  0.2915
11321SOL     OW34140   6.183   0.201   8.843 -0.2242 -0.0764  0.7028
11321SOL    HW134141   6.234   0.138   8.785  1.0146  0.9725  0.6193
11321SOL    HW234142   6.192   0.174   8.939  1.8237  0.9660  0.8457
11322SOL     OW34143   5.924   8.783   7.406  0.3673 -0.6020 -0.7384
11322SOL    HW134144   6.018   8.778   7.372  0.0071 -0.1784 -1.8583
11322SOL    HW234145   5.915   8.725   7.487  1.8252  0.1052 -0.0253
11323SOL     OW34146   3.430   0.201   1.979 -0.4165 -0.1672 -0.6184
11323SOL    HW134147   3.330   0.198   1.983 -0.5789  0.8515 -2.6070
11323SOL    HW234148   3.464   0.119   1.934 -0.1953 -1.2592  1.4287
11324SOL     OW34149   7.233   2.115   0.753  0.8154 -0.0619  0.6751
11324SOL    HW134150   7.251   2.213   0.751 -1.5712  0.4567  1.1627
11324SOL    HW234151   7.297   2.068   0.692 -0.6461  2.3036 -3.0488
11325SOL     OW34152   2.882   6.902   1.292 -0.4329  0.5957  0.6687
11325SOL    HW134153   2.880   6.812   1.248 -1.3219  0.1192  1.6393
11325SOL    HW234154   2.975   6.921   1.324 -0.6235 -0.9641  2.3498
11326SOL     OW34155   3.030   3.897   7.482 -0.3751  0.0197  0.1855
11326SOL    HW134156   3.026   3.841   7.399 -1.0631  0.9691 -0.4364
11326SOL    HW234157   2.982   3.983   7.467  0.4186  0.6738  1.2183
11327SOL     OW34158   0.807   5.843   7.505 -0.3981  0.1412 -0.0668
11327SOL    HW134159   0.774   5.769   7.448  0.6879 -1.0598  0.8021
11327SOL    HW234160   0.777   5.931   7.467 -0.9298 -0.6836 -1.6315
11328SOL     OW34161   2.471   7.963   3.186  0.4716 -0.4773 -0.0937
11328SOL    HW134162   2.379   7.927   3.204 -0.8705  0.8368 -3.4163
11328SOL    HW234163   2.478   8.056   3.221  0.8788 -0.8740  0.9101
11329SOL     OW34164   6.805   5.909   5.325  0.2158 -0.5116  0.6045
11329SOL    HW134165   6.889   5.914   5.270  0.5272  1.0093  1.1807
11329SOL    HW234166   6.825   5.937   5.419 -1.1110  0.7506  0.5313
11330SOL     OW34167   0.409   7.017   0.575 -0.3903 -0.1699  0.0276
11330SOL    HW134168   0.404   7.081   0.498 -1.4558  1.1292  1.1246
11330SOL    HW234169   0.475   7.051   0.642 -0.4955 -0.5630  0.3341
11331SOL     OW34170   0.083   1.074   7.359  0.2215 -0.1683 -0.4136
11331SOL    HW134171   0.046   0.987   7.325 -0.0837 -0.3359  0.3307
11331SOL    HW234172   0.013   1.121   7.413  0.8388 -0.1059  0.3440
11332SOL     OW34173   7.347   2.365   7.887 -0.4988 -0.6875  0.0332
11332SOL    HW134174   7.339   2.438   7.955  1.8589 -0.8088  0.5334
11332SOL    HW234175   7.296   2.390   7.805 -0.6841  0.9861  0.6219
11333SOL     OW34176   7.013   8.075   7.088  0.3521 -0.4763 -0.0327
11333SOL    HW134177   7.069   8.086   7.170 -1.7017 -1.7436  1.6243
11333SOL    HW234178   6.966   8.161   7.068  0.5850 -0.2649  0.3159
11334SOL     OW34179   5.599   0.395   2.682  0.3870  0.0627  0.4027
11334SOL    HW134180   5.590   0.344   2.596 -2.9687 -0.2092  0.7702
11334SOL    HW234181   5.666   0.350   2.741  0.4135 -1.6081 -0.8271
11335SOL     OW34182   6.235   1.406   7.690 -0.3284  0.5363  0.1131
11335SOL    HW134183   6.252   1.501   7.718 -0.7929 -0.5292  4.9329
11335SOL    HW234184   6.137   1.387   7.694 -0.2758 -0.0954 -1.1975
11336SOL     OW34185   1.248   5.526   2.151 -0.0062  0.2045 -0.0067
11336SOL    HW134186   1.297   5.591   2.093 -0.9596 -0.0777 -1.1628
11336SOL    HW234187   1.151   5.549   2.152  0.0400  0.5657  1.9996
11337SOL     OW34188   1.748   8.648   6.961 -0.3260 -0.0567 -0.2382
11337SOL    HW134189   1.843   8.661   6.934 -0.2164 -0.5849 -0.1253
11337SOL    HW234190   1.736   8.677   7.056 -0.5701  1.2112 -0.6457
11338SOL     OW34191   0.972   6.167   1.613 -0.2247  0.9291 -0.0465
11338SOL    HW134192   1.021   6.184   1.528  1.6142 -0.0115  0.7740
11338SOL    HW234193   1.031   6.116   1.676 -1.8490  0.8278  1.4633
11339SOL     OW34194   5.057   1.534   5.777 -0.1013  0.1426 -0.0169
11339SOL    HW134195   5.156   1.525   5.768 -0.0762 -0.1169  0.4837
11339SOL    HW234196   5.035   1.594   5.854 -0.3359 -1.0603  0.8970
11340SOL     OW34197   8.454   6.341   2.156 -0.5327 -0.0270  0.5114
11340SOL    HW134198   8.504   6.343   2.242 -2.4383  1.7949  1.6841
11340SOL    HW234199   8.373   6.283   2.166 -1.3305  1.0129  0.3636
11341SOL     OW34200   3.709   3.869   6.594 -0.3881  0.0370  0.4505
11341SOL    HW134201   3.723   3.809   6.515 -0.6356  1.0287 -0.3728
11341SOL    HW234202   3.719   3.817   6.678 -0.8482 -1.2114 -0.2421
11342SOL     OW34203   0.478   4.036   2.222 -0.0028  0.0531 -0.0226
11342SOL    HW134204   0.479   4.133   2.244 -0.0879  0.0588 -0.0423
11342SOL    HW234205   0.513   3.983   2.300  0.5767  0.1403 -0.2208
11343SOL     OW34206   0.284   6.783   4.045  0.1494 -0.1059  0.8586
11343SOL    HW134207   0.246   6.795   3.953  0.3150 -0.4465  0.7476
11343SOL    HW234208   0.378   6.816   4.047  0.5398 -1.1822  0.6038
11344SOL     OW34209   4.544   6.118   7.805  0.4083  0.1759  0.3202
11344SOL    HW134210   4.581   6.095   7.715 -0.2616  1.9590 -0.4575
11344SOL    HW234211   4.475   6.190   7.795 -1.7665 -1.5282  1.9478
11345SOL     OW34212   8.559   1.439   2.008  0.2866 -0.0693  0.4108
11345SOL    HW134213   8.629   1.434   2.080  1.3391  0.5077 -0.5436
11345SOL    HW234214   8.541   1.534   1.985  0.2564 -0.2525 -0.3620
11346SOL     OW34215   0.058   2.460   8.470 -0.0766  0.3438 -0.4400
11346SOL    HW134216  -0.013   2.487   8.405 -0.3219 -1.7921 -1.1668
11346SOL    HW234217   0.015   2.428   8.554  0.2391  2.9999  0.8157
11347SOL     OW34218   7.774   3.939   1.572  0.0703  0.3683 -0.1258
11347SOL    HW134219   7.784   4.028   1.617 -0.6876  0.7993 -0.7825
11347SOL    HW234220   7.812   3.944   1.479  1.2523 -0.3932  0.2999
11348SOL     OW34221   5.195   4.965   6.229 -0.1197  0.1413  0.3452
11348SOL    HW134222   5.234   4.873   6.221 -1.3472 -0.5087  1.4094
11348SOL    HW234223   5.240   5.014   6.304 -0.5865 -0.2271  0.8817
11349SOL     OW34224   0.232   1.280   1.842 -0.3206 -0.1530 -0.0217
11349SOL    HW134225   0.234   1.378   1.861  0.2843 -0.6236  2.7209
11349SOL    HW234226   0.163   1.236   1.899 -0.2120 -1.4179 -0.8161
11350SOL     OW34227   8.297   4.042   0.585 -0.2241  0.4028  0.3922
11350SOL    HW134228   8.264   4.134   0.607 -1.2153  0.5416 -1.4568
11350SOL    HW234229   8.397   4.041   0.587 -0.1598  1.7940 -0.4859
11351SOL     OW34230   7.850   8.062   4.096  0.2407 -0.4571  0.0261
11351SOL    HW134231   7.922   8.107   4.149  0.1272 -0.9235  0.5873
11351SOL    HW234232   7.888   7.983   4.048  0.4535  0.2545 -1.0085
11352SOL     OW34233   0.152   5.437   3.199  0.1507 -0.2498  0.2246
11352SOL    HW134234   0.069   5.415   3.148  1.0793  0.3361 -1.6396
11352SOL    HW234235   0.192   5.522   3.162 -0.2787  1.4800  3.3833
11353SOL     OW34236   0.302   6.624   6.102  0.3600 -0.0840  0.2726
11353SOL    HW134237   0.318   6.534   6.063  0.3671 -0.0579  0.2163
11353SOL    HW234238   0.308   6.694   6.031 -1.1656 -0.1737  0.0122
11354SOL     OW34239   7.505   7.336   0.327 -0.5061 -0.2202 -0.5283
11354SOL    HW134240   7.540   7.429   0.340  0.0411 -0.6123  1.0124
11354SOL    HW234241   7.425   7.322   0.386 -0.8128 -0.6104 -1.0308
11355SOL     OW34242   2.106   7.033   5.269  0.5469  0.5604  0.2253
11355SOL    HW134243   2.075   6.957   5.213  1.2936 -0.5291  1.2380
11355SOL    HW234244   2.206   7.039   5.265  0.6890 -0.0798  2.0669
11356SOL     OW34245   5.398   5.946   2.463  0.1149  0.1406 -0.4180
11356SOL    HW134246   5.394   5.855   2.423  1.2419  0.0202 -0.2939
11356SOL    HW234247   5.312   5.967   2.509  0.5577 -1.6951  1.3571
11357SOL     OW34248   3.219   1.659   4.699 -0.3705  0.3126  0.1957
11357SOL    HW134249   3.152   1.721   4.659 -0.5746  0.0897  0.1877
11357SOL    HW234250   3.299   1.653   4.640  0.0962  1.3735  0.7110
11358SOL     OW34251   5.013   2.254   4.274 -0.3867  0.4664  0.0532
11358SOL    HW134252   4.996   2.155   4.266 -0.7363  0.5197  0.1253
11358SOL    HW234253   5.007   2.296   4.184  0.5042  0.3098 -0.0935
11359SOL     OW34254   7.204   0.776   3.116  0.1577  0.0072 -0.6192
11359SOL    HW134255   7.135   0.728   3.169 -0.4811  1.4816 -0.0568
11359SOL    HW234256   7.159   0.838   3.051  0.9405  0.4894 -0.7151
11360SOL     OW34257   2.641   1.612   4.010  0.1691  0.0321  0.4142
11360SOL    HW134258   2.560   1.662   4.041  0.6769  0.8419  0.4776
11360SOL    HW234259   2.703   1.675   3.963  0.7007 -0.6038  0.2446
11361SOL     OW34260   2.481   5.687   6.815 -0.3198  0.1585  0.2377
11361SOL    HW134261   2.434   5.612   6.768  1.5405  0.2683 -1.9800
11361SOL    HW234262   2.541   5.735   6.750  2.0109  0.7001  2.6122
11362SOL     OW34263   8.857   3.914   3.274  0.3859 -0.2729  0.1134
11362SOL    HW134264   8.763   3.883   3.260  0.3346  0.1418 -0.4995
11362SOL    HW234265   8.897   3.939   3.186  1.5406 -1.7817  0.1839
11363SOL     OW34266   8.573   7.057   3.880  0.6365 -0.3278  0.4251
11363SOL    HW134267   8.516   7.104   3.947  1.2712  1.5039 -0.2550
11363SOL    HW234268   8.658   7.027   3.923  0.1198 -1.1370  0.9207
11364SOL     OW34269   1.827   7.855   7.754  0.2050 -1.0608  0.2646
11364SOL    HW134270   1.863   7.761   7.756 -0.3664 -1.3077 -0.6819
11364SOL    HW234271   1.835   7.895   7.846 -0.5346 -2.4092  0.9504
11365SOL     OW34272   6.056   6.622   5.086  0.3222 -0.1876  0.5210
11365SOL    HW134273   6.054   6.720   5.106  0.8857 -0.1710  0.5147
11365SOL    HW234274   6.114   6.576   5.153  2.7090 -0.0556 -1.3189
11366SOL     OW34275   1.512   4.508   5.806  0.1796  0.6700  0.3312
11366SOL    HW134276   1.519   4.419   5.763 -2.7611  0.1144  0.7880
11366SOL    HW234277   1.583   4.517   5.877  0.0025 -1.6612  0.8847
11367SOL     OW34278   3.151   3.800   5.049  0.0706  0.5429 -0.3085
11367SOL    HW134279   3.084   3.854   5.100 -1.0532 -0.6158 -0.4935
11367SOL    HW234280   3.234   3.788   5.105 -0.2549  1.1879  0.3241
11368SOL     OW34281   8.408   4.239   4.590  0.0434 -0.0659  0.0911
11368SOL    HW134282   8.477   4.207   4.526 -0.0974  0.7017 -0.4582
11368SOL    HW234283   8.447   4.310   4.649 -0.2161  0.2574 -0.1173
11369SOL     OW34284   4.417   4.972   3.673  0.2644 -0.2819 -0.3138
11369SOL    HW134285   4.432   4.956   3.771 -2.7079  2.9749  0.8569
11369SOL    HW234286   4.341   4.916   3.642 -1.8049  1.9012  0.5396
11370SOL     OW34287   4.510   1.207   3.782  0.2672  0.0092 -0.3351
11370SOL    HW134288   4.596   1.168   3.816  0.5390  0.8563 -0.0161
11370SOL    HW234289   4.478   1.154   3.704  1.6248  0.2916 -1.1146
11371SOL     OW34290   5.251   0.340   5.448  0.3994 -0.4449 -0.3150
11371SOL    HW134291   5.328   0.338   5.384  0.3967 -0.2246 -0.3257
11371SOL    HW234292   5.210   0.431   5.449  1.3336  0.0029  1.1040
11372SOL     OW34293   6.380   1.387   0.196  0.3814 -0.3850 -0.7155
11372SOL    HW134294   6.330   1.318   0.250 -0.3131  1.5522  1.2852
11372SOL    HW234295   6.316   1.434   0.135  0.5291 -0.4376 -0.9103
11373SOL     OW34296   6.976   4.645   8.121  0.3778  0.9598  0.0087
11373SOL    HW134297   6.882   4.618   8.145 -0.3315  3.3098  0.1193
11373SOL    HW234298   7.008   4.590   8.044 -1.6552  1.0761 -0.9955
11374SOL     OW34299   6.645   5.433   3.835 -0.4322 -0.5926  0.0737
11374SOL    HW134300   6.637   5.526   3.800  1.6848  0.2680  1.6068
11374SOL    HW234301   6.555   5.390   3.840 -1.5241  1.5676 -0.1698
11375SOL     OW34302   8.595   2.083   8.506  0.1068  0.0947 -0.2358
11375SOL    HW134303   8.589   2.180   8.528 -0.6078  0.3612 -1.4937
11375SOL    HW234304   8.691   2.058   8.491  0.3609  0.4304  0.7595
11376SOL     OW34305   4.548   5.045   3.441  0.6340  0.2777  0.1511
11376SOL    HW134306   4.511   5.015   3.529  1.8599  0.8389  0.8979
11376SOL    HW234307   4.573   5.142   3.447 -1.3282  0.9448 -1.5457
11377SOL     OW34308   0.293   7.550   5.730  0.7817  0.0210  0.8793
11377SOL    HW134309   0.219   7.608   5.693  1.5450  0.4428 -0.0352
11377SOL    HW234310   0.256   7.491   5.802 -0.5114  0.0420  0.2690
11378SOL     OW34311   1.791   2.443   1.195 -0.2778  0.0367 -0.1621
11378SOL    HW134312   1.764   2.488   1.110 -0.3376 -0.5598 -0.4625
11378SOL    HW234313   1.745   2.355   1.203 -0.5184  0.2245  0.6450
11379SOL     OW34314   6.818   6.492   7.597  0.3324  0.0140  0.2903
11379SOL    HW134315   6.814   6.591   7.610  0.2737  0.1732 -0.8540
11379SOL    HW234316   6.856   6.449   7.679  2.2807  1.1622  0.0489
11380SOL     OW34317   8.046   2.083   7.876 -0.0454  0.0886 -0.2080
11380SOL    HW134318   8.025   2.035   7.961  0.6543  0.9909  0.4869
11380SOL    HW234319   7.969   2.072   7.812  0.5766 -3.0356 -0.6045
11381SOL     OW34320   2.256   2.882   2.466 -0.5179  0.1154  0.2091
11381SOL    HW134321   2.210   2.887   2.555 -0.7766  1.1829  0.0310
11381SOL    HW234322   2.201   2.827   2.403 -0.3366 -0.6420  0.6915
11382SOL     OW34323   8.589   6.311   2.405 -0.0304  0.7056  0.0432
11382SOL    HW134324   8.581   6.401   2.448 -0.7032  1.2951 -1.2399
11382SOL    HW234325   8.683   6.276   2.416 -0.1793  0.8308  1.9099
11383SOL     OW34326   1.953   3.366   7.538 -0.9664 -0.0688  0.4125
11383SOL    HW134327   1.867   3.374   7.588 -0.5616  1.1803  0.9712
11383SOL    HW234328   1.940   3.312   7.455 -2.5273  0.9240 -0.0348
11384SOL     OW34329   3.666   7.877   4.501 -0.2959 -0.5508 -0.4801
11384SOL    HW134330   3.637   7.969   4.527 -0.2784 -0.1472 -1.8080
11384SOL    HW234331   3.593   7.832   4.450 -0.2119 -1.1852 -0.0510
11385SOL     OW34332   1.466   4.933   3.587  0.0343 -0.4657  0.1243
11385SOL    HW134333   1.475   4.834   3.594  0.7402 -0.3591  0.8593
11385SOL    HW234334   1.387   4.963   3.641  2.2583 -0.2253  3.5400
11386SOL     OW34335   5.766   1.939   5.668 -0.3867  1.2015 -0.1754
11386SOL    HW134336   5.860   1.943   5.702 -0.3337  1.7106 -0.3756
11386SOL    HW234337   5.752   2.010   5.599 -0.1858 -0.4090 -1.9699
11387SOL     OW34338   2.492   6.811   0.114  0.3376 -0.8933 -0.5304
11387SOL    HW134339   2.457   6.803   0.021  1.2580 -3.5276 -0.7216
11387SOL    HW234340   2.585   6.775   0.118  0.6371 -0.0301  1.2484
11388SOL     OW34341   1.621   3.935   6.393  0.0992 -0.2201  0.7093
11388SOL    HW134342   1.708   3.895   6.421  0.2544 -0.1813  0.2942
11388SOL    HW234343   1.617   4.031   6.422  0.8532  0.2342 -0.6015
11389SOL     OW34344   5.144   7.255   0.288 -0.6042  0.6583 -1.0215
11389SOL    HW134345   5.168   7.347   0.257 -0.7744  0.3401 -2.1575
11389SOL    HW234346   5.105   7.203   0.212 -1.2297 -0.1136 -0.2084
11390SOL     OW34347   4.101   5.139   1.708  0.0314  0.0270 -0.0079
11390SOL    HW134348   4.014   5.185   1.691  0.3371  1.4238  1.9254
11390SOL    HW234349   4.176   5.194   1.671  0.2154 -0.2989 -0.1251
11391SOL     OW34350   3.973   2.106   8.137 -0.3232  0.0496  0.1194
11391SOL    HW134351   3.930   2.192   8.163  2.4922  1.5402  0.2120
11391SOL    HW234352   4.009   2.113   8.044  0.5574 -0.7513  0.3801
11392SOL     OW34353   7.957   4.785   4.957 -0.6867  0.1002  0.2378
11392SOL    HW134354   8.027   4.805   4.888 -0.0037  0.3686  0.9918
11392SOL    HW234355   7.867   4.808   4.921 -0.3689  0.0043 -0.6517
11393SOL     OW34356   4.732   0.255   6.869 -0.1140 -0.1984 -0.0199
11393SOL    HW134357   4.794   0.288   6.799 -0.9901  0.1580 -0.6383
11393SOL    HW234358   4.656   0.319   6.880 -0.4428 -0.6834  0.6466
11394SOL     OW34359   8.055   4.909   5.624 -0.6629  0.1998  0.6577
11394SOL    HW134360   8.001   4.984   5.586  2.6064  1.7391 -1.3987
11394SOL    HW234361   8.083   4.848   5.549 -0.0234 -0.8597  1.7335
11395SOL     OW34362   7.622   7.893   7.523  0.0540 -0.4589  0.4251
11395SOL    HW134363   7.564   7.964   7.482 -0.0449 -0.0713  1.2060
11395SOL    HW234364   7.566   7.836   7.584  0.8187  1.2418  2.8828
11396SOL     OW34365   0.251   7.973   6.693 -0.3863 -0.3169  0.8358
11396SOL    HW134366   0.345   7.955   6.664 -0.5090 -0.0807  0.2751
11396SOL    HW234367   0.224   8.064   6.663 -1.4618 -1.1284 -0.7796
11397SOL     OW34368   5.553   5.293   2.063 -0.0968  0.7037  0.0220
11397SOL    HW134369   5.535   5.220   1.997 -2.5264 -1.8582  3.1863
11397SOL    HW234370   5.590   5.253   2.147 -0.8177  3.2418  1.6570
11398SOL     OW34371   0.116   1.401   3.370 -0.9698  0.2820  0.3530
11398SOL    HW134372   0.033   1.420   3.423 -1.2887 -1.2155  0.4471
11398SOL    HW234373   0.130   1.302   3.365  0.9673  0.5016  0.5623
11399SOL     OW34374   3.262   7.984   4.407 -0.2243  0.1286  0.2317
11399SOL    HW134375   3.341   7.964   4.349  1.2844  1.5131  1.7224
11399SOL    HW234376   3.266   7.929   4.490 -0.8652  0.1699  0.2962
11400SOL     OW34377   1.810   5.454   1.346  0.1337  0.4140 -0.2504
11400SOL    HW134378   1.848   5.512   1.418 -0.4223  0.2230  0.1993
11400SOL    HW234379   1.776   5.511   1.271  0.0743  0.6460 -0.0486
11401SOL     OW34380   3.917   1.923   1.676  0.7032  0.2278 -0.0003
11401SOL    HW134381   3.831   1.970   1.658 -0.1906 -1.1066  0.6815
11401SOL    HW234382   3.941   1.934   1.773  0.1146 -1.2725  0.3397
11402SOL     OW34383   2.685   4.116   7.665  0.0948  0.5427  0.3647
11402SOL    HW134384   2.595   4.114   7.621 -0.0606  1.9295  0.5878
11402SOL    HW234385   2.685   4.184   7.738  1.6942  1.4953 -0.4758
11403SOL     OW34386   3.863   7.671   8.494 -0.0230 -0.3078  0.1747
11403SOL    HW134387   3.792   7.661   8.564 -1.0257  0.0395 -0.7587
11403SOL    HW234388   3.929   7.596   8.502  0.1168 -0.0666  1.7238
11404SOL     OW34389   1.897   3.526   2.844 -0.1080  0.6738  0.1665
11404SOL    HW134390   1.844   3.504   2.927 -0.0014  1.5354  0.4706
11404SOL    HW234391   1.983   3.476   2.846 -0.5214 -0.0591  0.0991
11405SOL     OW34392   0.805   4.778   4.209 -0.1378  0.0684  0.0914
11405SOL    HW134393   0.900   4.764   4.181 -0.1297  0.3061 -0.0028
11405SOL    HW234394   0.802   4.842   4.285 -0.3531  1.6371 -1.1767
11406SOL     OW34395   1.763   6.633   8.270 -0.0420  0.0827  0.3651
11406SOL    HW134396   1.687   6.571   8.290  0.1942 -0.3114  0.0502
11406SOL    HW234397   1.755   6.666   8.176  0.5995 -0.5789  0.0677
11407SOL     OW34398   1.738   3.037   0.236 -0.5288  0.1220  0.4553
11407SOL    HW134399   1.717   3.073   0.145 -1.6507 -0.1706  0.5835
11407SOL    HW234400   1.707   2.942   0.242  0.5393 -0.2213  0.7890
11408SOL     OW34401   1.623   0.722   2.004  0.9991 -0.0826 -0.0335
11408SOL    HW134402   1.537   0.676   2.024  0.9382 -0.5901 -1.4088
11408SOL    HW234403   1.698   0.670   2.046  0.6824  0.2393  0.9732
11409SOL     OW34404   7.580   1.468   0.245  0.0385  0.2135  0.4150
11409SOL    HW134405   7.535   1.550   0.211  0.9683  0.2185 -0.8467
11409SOL    HW234406   7.678   1.484   0.253  0.0896 -0.4317  1.2082
11410SOL     OW34407   8.358   8.129   0.767  0.1720  0.2671 -0.3813
11410SOL    HW134408   8.385   8.050   0.822  1.3705  0.2795 -0.9350
11410SOL    HW234409   8.337   8.099   0.674 -0.5970  0.4317 -0.2689
11411SOL     OW34410   1.608   0.723   1.326  0.0842  0.1224 -0.6450
11411SOL    HW134411   1.537   0.663   1.363  0.3235 -0.5491 -1.2499
11411SOL    HW234412   1.686   0.725   1.388 -0.3001  0.5603 -0.1655
11412SOL     OW34413   8.481   6.762   0.870  0.1479 -0.2610 -0.4613
11412SOL    HW134414   8.452   6.850   0.909 -0.6370  0.1265 -1.8491
11412SOL    HW234415   8.554   6.778   0.805 -0.0516 -0.6305 -0.7741
11413SOL     OW34416   7.085   1.022   6.860 -0.4927 -0.6955  0.0133
11413SOL    HW134417   7.128   1.112   6.868 -0.1633 -0.9812  2.0574
11413SOL    HW234418   7.107   0.982   6.771 -0.5345  1.1750 -0.8637
11414SOL     OW34419   6.736   3.502   1.440  0.4282 -0.5323 -0.5478
11414SOL    HW134420   6.781   3.453   1.365 -1.5553 -0.2610 -2.0068
11414SOL    HW234421   6.653   3.453   1.467 -0.3065  0.7625 -0.3754
11415SOL     OW34422   0.495   6.329   1.166 -0.1856 -0.3197  0.4042
11415SOL    HW134423   0.542   6.332   1.077 -1.3105 -1.0125 -0.2345
11415SOL    HW234424   0.530   6.252   1.219 -1.7986 -1.9821 -0.8059
11416SOL     OW34425   7.871   0.051   8.293  0.0075 -0.1416  0.3344
11416SOL    HW134426   7.883   0.003   8.206  0.9225 -1.4834  1.1698
11416SOL    HW234427   7.883  -0.013   8.368 -0.5393  1.0518  1.4690
11417SOL     OW34428   1.252   7.836   5.669 -0.5584  0.4766  0.3020
11417SOL    HW134429   1.219   7.745   5.696 -0.3560  0.4079  0.3212
11417SOL    HW234430   1.187   7.878   5.606  1.2604 -1.3923 -3.1267
11418SOL     OW34431   4.022   0.466   0.863  0.4815  0.4632 -0.4262
11418SOL    HW134432   4.050   0.540   0.802 -1.3201  1.0478 -0.6174
11418SOL    HW234433   3.972   0.504   0.941  1.8987 -0.3634  0.9205
11419SOL     OW34434   5.598   0.081   0.293  0.0211  0.1675 -0.6980
11419SOL    HW134435   5.566  -0.011   0.316  2.8885 -0.9212 -0.6431
11419SOL    HW234436   5.542   0.119   0.219 -2.1510 -0.9588  0.2777
11420SOL     OW34437   7.786   4.139   3.730 -0.1789  0.6898  0.0827
11420SOL    HW134438   7.760   4.044   3.748 -0.5695  0.8013  0.1096
11420SOL    HW234439   7.872   4.160   3.778  0.0074  0.2952 -0.0776
11421SOL     OW34440   7.870   3.087   0.672 -0.2458  0.1037 -0.4285
11421SOL    HW134441   7.801   3.155   0.646 -0.7474 -0.3335 -0.2429
11421SOL    HW234442   7.903   3.107   0.764  0.2276  0.5890 -0.6919
11422SOL     OW34443   3.938   7.235   6.032 -0.0850  0.1104  0.0082
11422SOL    HW134444   4.017   7.283   5.994  1.2479 -2.4666 -0.6943
11422SOL    HW234445   3.871   7.217   5.960 -0.2668  0.3141  0.1253
11423SOL     OW34446   6.406   1.163   8.784  0.2970 -0.3258 -0.0573
11423SOL    HW134447   6.464   1.244   8.785  0.7584 -0.4788 -3.4936
11423SOL    HW234448   6.462   1.081   8.793 -0.2267 -0.4352  4.1384
11424SOL     OW34449   0.748   5.918   4.262  0.0580  0.4143  0.1557
11424SOL    HW134450   0.705   5.902   4.173  0.7207  1.9115 -0.4663
11424SOL    HW234451   0.679   5.916   4.334 -0.4981 -0.7451 -0.3852
11425SOL     OW34452   6.986   6.037   0.217  0.4924  0.3299 -0.5946
11425SOL    HW134453   7.041   6.025   0.300 -1.1268 -1.7748  0.2717
11425SOL    HW234454   7.024   5.982   0.143 -0.7765 -1.7580  0.2289
11426SOL     OW34455   6.593   5.164   0.855 -0.2382 -0.1578  0.7250
11426SOL    HW134456   6.519   5.124   0.802  0.3494  3.6099 -3.5406
11426SOL    HW234457   6.560   5.247   0.901  0.8324  0.3570  0.5982
11427SOL     OW34458   3.920   2.277   1.950 -0.3843  0.2085 -0.3161
11427SOL    HW134459   3.898   2.352   2.013  0.3962 -0.0616  0.2963
11427SOL    HW234460   4.007   2.295   1.905 -0.3242 -0.1958 -0.3672
11428SOL     OW34461   0.076   7.829   0.587 -0.2373  0.0134 -0.8225
11428SOL    HW134462   0.139   7.882   0.531 -0.2182  0.6835 -0.1872
11428SOL    HW234463   0.110   7.735   0.596 -0.0970 -0.0266 -1.6789
11429SOL     OW34464   8.115   3.307   8.515 -0.3312 -0.2070 -0.3713
11429SOL    HW134465   8.121   3.369   8.593  0.6405 -1.0866  0.2800
11429SOL    HW234466   8.083   3.357   8.435  0.2924  1.0881  0.1670
11430SOL     OW34467   4.232   5.671   8.020 -0.3342 -0.2955 -0.1181
11430SOL    HW134468   4.216   5.742   8.088  0.8373  1.1823 -1.3304
11430SOL    HW234469   4.150   5.657   7.965 -1.0389 -0.9544  1.0712
11431SOL     OW34470   5.801   4.517   3.501  0.2494 -0.0838  0.5629
11431SOL    HW134471   5.881   4.524   3.440 -0.3458 -0.5449 -0.2951
11431SOL    HW234472   5.816   4.575   3.581  0.7902  1.0663 -0.3300
11432SOL     OW34473   5.100   1.430   7.053  0.2753  0.1147  0.1254
11432SOL    HW134474   5.082   1.367   7.128 -0.5087  0.7267  0.4634
11432SOL    HW234475   5.169   1.497   7.082  1.5344 -0.9042 -0.4257
11433SOL     OW34476   7.556   1.539   5.999  0.1779  0.2884  0.2003
11433SOL    HW134477   7.483   1.551   5.932  0.1450 -0.5251  0.0832
11433SOL    HW234478   7.538   1.457   6.053 -0.7113  1.8108  2.3756
11434SOL     OW34479   7.934   5.013   3.808 -0.4992 -0.3224  0.0960
11434SOL    HW134480   7.877   5.036   3.729 -1.7101  0.7504  1.2376
11434SOL    HW234481   7.883   5.028   3.892  2.0304  2.6662  1.3192
11435SOL     OW34482   6.581   0.525   2.834  0.0496 -0.1100 -0.1953
11435SOL    HW134483   6.654   0.491   2.775  0.2116  3.2595 -2.2460
11435SOL    HW234484   6.612   0.607   2.882 -1.2888 -0.6740  1.7562
11436SOL     OW34485   4.655   1.405   0.937  0.4471  0.2575  0.1851
11436SOL    HW134486   4.595   1.442   0.866  0.4446 -0.8442 -0.4087
11436SOL    HW234487   4.606   1.337   0.991  1.1888 -0.8453 -0.4668
11437SOL     OW34488   3.644   3.506   8.424 -0.4948 -0.2906 -0.0762
11437SOL    HW134489   3.621   3.597   8.390  1.0278  0.4492  0.7784
11437SOL    HW234490   3.586   3.484   8.502  0.8464  1.0970  1.3791
11438SOL     OW34491   0.723   1.826   7.303  0.4252  0.4912  0.4290
11438SOL    HW134492   0.779   1.874   7.235  1.1789  1.2535  1.5412
11438SOL    HW234493   0.626   1.848   7.287  0.4283 -0.6236 -1.3477
11439SOL     OW34494   4.413   1.606   7.267  0.3488  0.1287 -0.1690
11439SOL    HW134495   4.367   1.537   7.323  0.7918  0.0481  0.0939
11439SOL    HW234496   4.354   1.628   7.189 -1.0477  1.4868  1.1947
11440SOL     OW34497   3.445   2.883   7.560 -0.1763 -0.5934  0.0221
11440SOL    HW134498   3.494   2.924   7.637 -3.4814 -2.0584  3.1938
11440SOL    HW234499   3.461   2.784   7.560  0.2068 -0.5607 -1.6121
11441SOL     OW34500   0.280   7.496   6.143  0.2339  0.5329  0.5191
11441SOL    HW134501   0.217   7.504   6.220 -0.8005 -0.4570 -0.1840
11441SOL    HW234502   0.286   7.584   6.096 -0.2499  0.7645  0.8727
11442SOL     OW34503   8.346   8.268   6.960 -0.3896 -0.2846  0.1526
11442SOL    HW134504   8.414   8.203   6.995  0.6564  0.0130 -1.2263
11442SOL    HW234505   8.372   8.361   6.985 -1.2976 -0.2923  1.1872
11443SOL     OW34506   7.339   2.051   1.019 -0.4154  0.5119 -0.0671
11443SOL    HW134507   7.350   2.095   0.930 -1.1176 -1.6446 -1.2970
11443SOL    HW234508   7.244   2.061   1.049  0.1527  2.5612  1.2550
11444SOL     OW34509   3.182   4.738   4.024  0.1879  0.2107  0.5634
11444SOL    HW134510   3.199   4.784   4.111  0.6794  0.0438  0.5584
11444SOL    HW234511   3.212   4.643   4.030  1.9433  0.6631 -0.3467
11445SOL     OW34512   6.640   7.622   8.182  0.4379  0.4883  0.1808
11445SOL    HW134513   6.694   7.662   8.255  1.2351  0.9794 -0.6638
11445SOL    HW234514   6.698   7.562   8.126  0.1551  1.1271 -0.8206
11446SOL     OW34515   1.046   6.412   4.322  0.0322  0.5005  0.5583
11446SOL    HW134516   0.958   6.383   4.285 -0.2704  0.2180  1.4783
11446SOL    HW234517   1.105   6.332   4.334  0.7652  0.7849 -0.9023
11447SOL     OW34518   6.355   0.171   6.125 -0.1736 -0.1010  0.2185
11447SOL    HW134519   6.278   0.226   6.158  1.3835  1.6001  1.2184
11447SOL    HW234520   6.399   0.219   6.049  1.3414  0.1713  1.2376
11448SOL     OW34521   7.642   4.910   7.217 -0.7944 -0.2906  0.0880
11448SOL    HW134522   7.684   4.827   7.180  1.3625  0.3850  0.8581
11448SOL    HW234523   7.679   4.929   7.307  0.3313  2.5547 -0.8546
11449SOL     OW34524   1.271   0.355   1.597 -0.8081  0.0747  0.4329
11449SOL    HW134525   1.232   0.306   1.519 -0.5180  0.5873 -0.0490
11449SOL    HW234526   1.251   0.306   1.681 -2.0704  0.0753  0.1576
11450SOL     OW34527   6.742   8.708   4.039  0.2026  0.1692  0.1584
11450SOL    HW134528   6.666   8.766   4.010 -1.2791 -1.2668  1.0340
11450SOL    HW234529   6.745   8.627   3.981 -0.2430 -0.7711  1.4210
11451SOL     OW34530   8.488   6.290   4.161 -0.2205 -0.2002 -0.3784
11451SOL    HW134531   8.512   6.286   4.259 -1.4539  0.0242 -0.0494
11451SOL    HW234532   8.427   6.215   4.139 -1.7823  1.0398 -0.4247
11452SOL     OW34533   5.622   0.249   6.274 -0.1980 -0.1473  0.0792
11452SOL    HW134534   5.694   0.218   6.211 -0.3062  1.3182 -0.8248
11452SOL    HW234535   5.542   0.190   6.265  0.2957 -0.7998 -0.1288
11453SOL     OW34536   3.023   8.184   5.236  0.1395  0.0159 -0.2155
11453SOL    HW134537   3.083   8.159   5.311  1.4781  1.4362 -0.7517
11453SOL    HW234538   2.968   8.264   5.262  0.1488  0.1218 -0.5116
11454SOL     OW34539   0.046   6.528   1.010  0.7806 -0.5672  0.3586
11454SOL    HW134540   0.134   6.483   0.992  0.6290 -0.5203 -0.5026
11454SOL    HW234541  -0.015   6.516   0.932  1.2788  2.5171 -0.6153
11455SOL     OW34542   4.200   2.710   0.059  0.3135 -0.1372 -0.2709
11455SOL    HW134543   4.191   2.663  -0.028 -1.2657 -1.0837  0.3621
11455SOL    HW234544   4.133   2.785   0.064  1.0404  0.5229 -0.2347
11456SOL     OW34545   4.426   5.983   1.367  0.3831  0.8290  0.2490
11456SOL    HW134546   4.480   5.957   1.447  0.8831  1.8056  0.2479
11456SOL    HW234547   4.486   5.988   1.287  0.0288  0.5946 -0.0325
11457SOL     OW34548   6.458   4.470   6.068 -0.1362  0.2254  0.0056
11457SOL    HW134549   6.407   4.485   6.152  0.4037 -0.0694  0.3930
11457SOL    HW234550   6.531   4.537   6.060 -0.5563  0.6290 -0.5335
11458SOL     OW34551   0.624   6.337   0.886  0.0083  0.1375  0.1665
11458SOL    HW134552   0.625   6.400   0.809  1.4099 -0.4456 -0.3334
11458SOL    HW234553   0.586   6.249   0.857  1.9787 -0.6026 -0.3575
11459SOL     OW34554   0.997   2.684   1.904  0.3637  0.1417  0.1424
11459SOL    HW134555   1.035   2.735   1.982  2.0878 -1.0826  0.1487
11459SOL    HW234556   1.021   2.732   1.819  2.4735 -0.8597  0.1083
11460SOL     OW34557   8.654   8.682   6.970 -0.0252 -0.4705 -0.1764
11460SOL    HW134558   8.637   8.742   6.892 -0.6604  0.5819  0.7250
11460SOL    HW234559   8.730   8.717   7.024  0.3547 -1.1410 -0.2620
11461SOL     OW34560   0.426   5.049   5.944 -0.2075  0.2445 -0.1121
11461SOL    HW134561   0.459   5.047   5.850  0.0642 -1.0467 -0.0054
11461SOL    HW234562   0.499   5.019   6.005 -1.2546 -1.8083  0.2136
11462SOL     OW34563   4.026   5.785   7.258  0.3267  0.1122  0.6296
11462SOL    HW134564   4.062   5.735   7.336  1.0383  0.4096  0.5000
11462SOL    HW234565   3.945   5.836   7.285 -0.7722 -1.5754  0.6209
11463SOL     OW34566   3.238   8.658   4.696  0.0465 -0.3261  0.4656
11463SOL    HW134567   3.253   8.691   4.789  0.9403  0.5872  0.0141
11463SOL    HW234568   3.214   8.735   4.637 -1.8018 -1.0722  0.1781
11464SOL     OW34569   7.241   2.868   5.312 -0.5403 -0.3670  0.1168
11464SOL    HW134570   7.217   2.900   5.403 -0.8616 -0.7719  0.1805
11464SOL    HW234571   7.246   2.945   5.249 -0.4639 -0.1039  0.4433
11465SOL     OW34572   1.486   7.547   1.163  0.3614  0.0520 -0.1499
11465SOL    HW134573   1.421   7.608   1.208 -2.0113 -1.6407 -1.0588
11465SOL    HW234574   1.523   7.482   1.229  0.4516  0.4541  0.1999
11466SOL     OW34575   4.395   0.631   5.032  0.3246 -0.2346 -0.0811
11466SOL    HW134576   4.487   0.640   5.069 -1.2452  0.6686  4.3633
11466SOL    HW234577   4.353   0.721   5.024 -0.2022 -0.6172 -2.1306
11467SOL     OW34578   6.173   7.908   0.704 -0.7592  0.0337 -0.5578
11467SOL    HW134579   6.097   7.885   0.643 -0.3843  1.5170 -1.6284
11467SOL    HW234580   6.181   8.007   0.712  1.0326 -0.0858 -0.4382
11468SOL     OW34581   5.198   0.284   6.243 -0.7019 -0.3173  0.1798
11468SOL    HW134582   5.132   0.269   6.170 -0.0055 -0.3427 -0.4621
11468SOL    HW234583   5.213   0.382   6.256 -0.4020 -0.3227 -0.1099
11469SOL     OW34584   2.673   1.470   1.072  0.1943  0.1306  0.0159
11469SOL    HW134585   2.647   1.536   1.001  1.7185  1.4669  0.6375
11469SOL    HW234586   2.750   1.415   1.040  1.1273  0.9925  0.7499
11470SOL     OW34587   8.688   6.903   3.672  0.4031  0.1018 -0.7144
11470SOL    HW134588   8.636   6.947   3.745  0.1780  0.3953 -1.0510
11470SOL    HW234589   8.657   6.808   3.662 -0.0618  0.2730 -0.9063
11471SOL     OW34590   8.612   4.323   3.153 -0.0647  0.7100 -0.5295
11471SOL    HW134591   8.588   4.354   3.060 -0.2429  1.3468 -0.2776
11471SOL    HW234592   8.528   4.302   3.203 -0.0132  1.2159 -0.2281
11472SOL     OW34593   5.848   5.729   0.333 -0.8981 -0.3709 -0.6594
11472SOL    HW134594   5.829   5.782   0.415 -0.9633 -0.7656 -0.4167
11472SOL    HW234595   5.834   5.786   0.252 -0.1882  0.2197 -0.3829
11473SOL     OW34596   5.399   4.492   2.170 -0.2126  0.3102  0.3649
11473SOL    HW134597   5.357   4.564   2.225 -0.1702  2.2073 -1.9360
11473SOL    HW234598   5.498   4.498   2.177 -0.1671  1.4148 -0.8732
11474SOL     OW34599   8.761   2.196   0.875  0.6825  0.3372 -0.6317
11474SOL    HW134600   8.716   2.110   0.850 -1.1284  0.7859  0.8763
11474SOL    HW234601   8.730   2.268   0.813 -1.1518  0.7433  0.6836
11475SOL     OW34602   1.426   0.871   5.258  0.3818 -0.1282  0.5931
11475SOL    HW134603   1.396   0.937   5.189  1.5995  0.5465  0.6886
11475SOL    HW234604   1.395   0.900   5.348 -2.5221 -1.7793  0.2589
11476SOL     OW34605   5.004   6.233   2.387  0.0747 -0.0288 -0.0725
11476SOL    HW134606   5.075   6.264   2.325  0.3940 -1.2375 -0.3411
11476SOL    HW234607   4.925   6.293   2.380  0.4488  0.3790 -0.9693
11477SOL     OW34608   4.274   4.269   5.820  0.0698 -0.0357 -0.2005
11477SOL    HW134609   4.286   4.191   5.882 -2.3006 -1.7994 -1.8024
11477SOL    HW234610   4.337   4.260   5.743  1.9697  1.3817  1.0716
11478SOL     OW34611   6.551   6.231   8.814  0.4891 -0.7252  0.4872
11478SOL    HW134612   6.635   6.223   8.761  1.0925 -0.5356  1.3819
11478SOL    HW234613   6.549   6.160   8.884  0.3824 -0.1240  1.1009
11479SOL     OW34614   8.065   2.848   3.054 -0.2824  0.0064 -0.1718
11479SOL    HW134615   8.112   2.936   3.057 -0.6809  0.3165 -1.8084
11479SOL    HW234616   8.055   2.819   2.959  0.8801 -2.3891  0.3601
11480SOL     OW34617   1.877   7.501   8.836 -0.3006  0.1444 -0.0435
11480SOL    HW134618   1.912   7.408   8.839  1.1039  0.6368 -0.3196
11480SOL    HW234619   1.913   7.553   8.914 -1.3013  0.3808  0.2690
11481SOL     OW34620   3.864   2.781   0.654  0.2936 -0.2727  0.0076
11481SOL    HW134621   3.939   2.770   0.589 -0.5362 -0.7946 -0.8845
11481SOL    HW234622   3.777   2.783   0.605 -0.2878  0.2799  1.0285
11482SOL     OW34623   6.714   4.969   7.549 -0.2045  0.3413  0.4898
11482SOL    HW134624   6.642   5.035   7.573  1.5289  1.4843  2.9201
11482SOL    HW234625   6.711   4.892   7.614 -1.2883 -1.3689 -1.4568
11483SOL     OW34626   3.115   7.459   8.783  0.3564 -0.6361 -0.3142
11483SOL    HW134627   3.161   7.374   8.810  0.4378 -0.6316 -0.4410
11483SOL    HW234628   3.039   7.476   8.845 -0.5764 -1.5702 -1.1557
11484SOL     OW34629   0.071   6.322   3.604  0.5823  0.4498 -0.1139
11484SOL    HW134630   0.098   6.274   3.520  1.6106  0.2617  0.3005
11484SOL    HW234631   0.017   6.261   3.662  0.4296  0.3643 -0.3465
11485SOL     OW34632   1.339   6.497   2.372 -0.3129 -0.0612  0.1128
11485SOL    HW134633   1.386   6.461   2.292 -3.0037 -2.9470 -0.3593
11485SOL    HW234634   1.378   6.457   2.455  0.3185  0.3459  0.0196
11486SOL     OW34635   4.850   0.040   6.280 -0.1620 -0.0446 -0.1340
11486SOL    HW134636   4.900  -0.040   6.311 -1.7548 -0.5645  1.2061
11486SOL    HW234637   4.824   0.028   6.184 -0.0659 -0.9776 -0.0521
11487SOL     OW34638   8.620   1.911   8.743  0.3313 -0.2930  0.0295
11487SOL    HW134639   8.635   1.988   8.680  2.0929  0.5088  1.3357
11487SOL    HW234640   8.651   1.826   8.700 -0.3583 -0.0834 -0.9146
11488SOL     OW34641   1.450   6.913   7.254 -0.1869  0.0712  0.4302
11488SOL    HW134642   1.540   6.903   7.295  0.0483 -0.7254 -0.2445
11488SOL    HW234643   1.402   6.990   7.296  0.7816  0.4666  0.8276
11489SOL     OW34644   5.788   5.848   6.269  0.1392 -0.0468 -0.5680
11489SOL    HW134645   5.812   5.881   6.360  0.8901  0.7906 -1.0648
11489SOL    HW234646   5.754   5.923   6.213  0.9042 -0.2955 -1.3902
11490SOL     OW34647   3.299   6.524   7.613  0.4870  0.2605 -0.4232
11490SOL    HW134648   3.260   6.528   7.705  1.9408  0.1365  0.2288
11490SOL    HW234649   3.318   6.429   7.589 -0.4461  0.2398 -1.1114
11491SOL     OW34650   8.426   3.194   8.810 -0.2509 -0.0250  0.2044
11491SOL    HW134651   8.495   3.236   8.750 -1.6666  1.8017 -0.2350
11491SOL    HW234652   8.430   3.237   8.900  0.1493 -0.9574  0.6378
11492SOL     OW34653   6.994   1.609   6.940 -0.0336 -0.4810 -0.3562
11492SOL    HW134654   6.951   1.653   7.019  0.6113 -1.1017  0.3558
11492SOL    HW234655   6.991   1.510   6.952  1.4774 -0.5436 -0.3537
11493SOL     OW34656   8.594   8.862   2.786  0.5028 -0.1770  0.2375
11493SOL    HW134657   8.599   8.814   2.698  0.8008 -0.3535  0.3476
11493SOL    HW234658   8.610   8.797   2.860  3.4152  0.4484  0.2971
11494SOL     OW34659   5.295   4.276   2.939 -0.4851 -0.0020 -0.4815
11494SOL    HW134660   5.232   4.272   3.017 -0.4989 -0.5181 -0.5179
11494SOL    HW234661   5.358   4.199   2.943 -1.0897 -0.5644 -1.4979
11495SOL     OW34662   1.718   2.971   5.641  0.2361 -0.3073  0.0572
11495SOL    HW134663   1.701   2.987   5.543 -0.8167 -3.5312 -0.4241
11495SOL    HW234664   1.806   2.925   5.652 -0.4793 -1.6643  0.3503
11496SOL     OW34665   7.898   3.950   1.318  0.0527 -0.3437  0.1809
11496SOL    HW134666   7.995   3.925   1.321  0.4471  1.1624  0.6352
11496SOL    HW234667   7.887   4.037   1.271 -1.1019 -0.5266  0.0780
11497SOL     OW34668   5.257   7.412   7.799 -0.0366 -0.0179 -0.4796
11497SOL    HW134669   5.179   7.400   7.861  0.2798  1.1161  0.1666
11497SOL    HW234670   5.266   7.509   7.776 -0.2333 -0.4294 -2.4512
11498SOL     OW34671   0.730   0.659   0.164 -0.0816  0.3343 -0.5383
11498SOL    HW134672   0.796   0.715   0.115  0.4020 -1.6495 -2.2531
11498SOL    HW234673   0.683   0.598   0.100 -0.0316 -1.7697  1.3153
11499SOL     OW34674   7.492   1.000   7.776 -0.1483 -0.0661 -0.5738
11499SOL    HW134675   7.433   1.073   7.743 -1.1676 -0.5186  0.1985
11499SOL    HW234676   7.544   1.033   7.855 -0.4850 -0.1148 -0.3284
11500SOL     OW34677   8.053   7.285   5.137  0.1091 -0.4142 -0.4205
11500SOL    HW134678   8.037   7.190   5.162 -0.3913 -0.0817  0.5514
11500SOL    HW234679   7.982   7.316   5.074  0.1813 -0.6314 -0.6107
11501SOL     OW34680   8.862   8.423   8.230  0.1906 -0.2315  0.2874
11501SOL    HW134681   8.850   8.344   8.290 -0.5158  1.9688  3.2595
11501SOL    HW234682   8.897   8.500   8.283  0.4333  1.6287 -2.3940
11502SOL     OW34683   2.081   3.234   5.738  0.2412 -0.8330 -0.1010
11502SOL    HW134684   2.148   3.305   5.715 -0.9827  0.1334 -0.7677
11502SOL    HW234685   2.094   3.207   5.834  1.4211 -0.5167 -0.1492
11503SOL     OW34686   2.009   1.212   6.409  0.3641 -0.2167  0.3065
11503SOL    HW134687   2.040   1.306   6.427 -1.3846  0.8545 -1.7054
11503SOL    HW234688   1.956   1.179   6.487  1.5087  0.2066  1.2968
11504SOL     OW34689   1.485   8.406   1.991  0.1028 -0.1449 -0.7807
11504SOL    HW134690   1.523   8.317   1.967  2.7901  0.7288 -0.0806
11504SOL    HW234691   1.558   8.474   1.993 -1.5427  1.6956  0.6892
11505SOL     OW34692   4.352   5.106   2.449 -0.2561  0.0857  0.1036
11505SOL    HW134693   4.399   5.192   2.468 -1.2437  0.7196 -0.2662
11505SOL    HW234694   4.374   5.076   2.356 -0.0556  0.0423  0.1661
11506SOL     OW34695   1.222   4.690   8.572  0.5159 -0.3145  0.1107
11506SOL    HW134696   1.125   4.712   8.584 -0.1503 -1.1952 -2.8815
11506SOL    HW234697   1.263   4.675   8.662 -1.7473  1.3840  1.5692
11507SOL     OW34698   4.020   2.000   3.096  0.3398  1.1318 -0.2655
11507SOL    HW134699   3.994   1.933   3.166  2.0290 -0.5030 -1.1162
11507SOL    HW234700   3.939   2.024   3.042 -0.7727  1.6206  1.5186
11508SOL     OW34701   3.759   5.839   1.446  0.0326  0.1734 -0.2224
11508SOL    HW134702   3.699   5.830   1.525 -0.1004  2.8810  0.0727
11508SOL    HW234703   3.766   5.936   1.420  1.9832 -0.3788 -2.0440
11509SOL     OW34704   4.557   3.908   6.046 -0.3487  0.8595  0.1319
11509SOL    HW134705   4.573   3.992   6.097  1.4010  1.4945 -1.3683
11509SOL    HW234706   4.469   3.869   6.072 -0.7608  2.6344  1.5425
11510SOL     OW34707   1.645   7.966   7.179  0.0050 -0.1343 -0.9881
11510SOL    HW134708   1.597   7.990   7.263  3.6392 -1.2376  1.6851
11510SOL    HW234709   1.693   8.046   7.144 -0.4418  0.0305 -1.2193
11511SOL     OW34710   2.854   2.060   0.007  0.2557 -0.4770  0.3351
11511SOL    HW134711   2.842   2.140  -0.051 -0.5006 -0.8240  0.0021
11511SOL    HW234712   2.883   2.089   0.098  1.4855  0.0715 -0.2105
11512SOL     OW34713   5.222   2.834   5.472 -0.4261  0.3601  0.1538
11512SOL    HW134714   5.292   2.826   5.544 -1.6879 -0.2496  1.3482
11512SOL    HW234715   5.190   2.928   5.468 -2.0627 -0.0531  2.1058
11513SOL     OW34716   5.669   0.024   4.889 -0.0538  0.4819  0.6852
11513SOL    HW134717   5.608  -0.017   4.821 -0.3097  0.4919  0.9056
11513SOL    HW234718   5.745  -0.038   4.907  2.4685  2.2039 -2.7839
11514SOL     OW34719   0.595   6.629   8.826 -0.1584  0.3221 -0.1394
11514SOL    HW134720   0.567   6.704   8.766 -0.8459  0.4831  0.3649
11514SOL    HW234721   0.636   6.667   8.909 -2.0302  0.2555  0.8956
11515SOL     OW34722   2.202   0.134   7.152  0.1723 -0.0280  0.4835
11515SOL    HW134723   2.180   0.079   7.072  1.9426 -1.2803  0.8158
11515SOL    HW234724   2.270   0.203   7.128  0.0275  0.1981  0.7109
11516SOL     OW34725   1.098   0.531   1.182 -0.0409  0.1818  0.1643
11516SOL    HW134726   1.120   0.436   1.204 -0.1465  0.2151  0.4096
11516SOL    HW234727   1.161   0.592   1.229  0.4221  0.2123 -0.4832
11517SOL     OW34728   5.966   6.999   8.615  0.3389  0.5254  0.1138
11517SOL    HW134729   5.989   6.906   8.585 -0.1722  0.4270  0.0246
11517SOL    HW234730   6.011   7.018   8.702 -0.7554 -0.3472  0.8803
11518SOL     OW34731   2.504   0.848   3.337  0.0035 -0.3920  0.6041
11518SOL    HW134732   2.469   0.868   3.428  1.3762  1.6664  0.7343
11518SOL    HW234733   2.584   0.905   3.318 -1.4906  0.9209 -2.6801
11519SOL     OW34734   6.314   1.474   0.907 -0.0647 -0.2088 -0.0807
11519SOL    HW134735   6.362   1.403   0.957 -1.2859 -0.8685  0.1995
11519SOL    HW234736   6.379   1.544   0.878  1.1521 -1.3667 -0.2647
11520SOL     OW34737   3.329   3.665   3.070 -0.5167 -0.1915 -0.1506
11520SOL    HW134738   3.333   3.723   2.989 -1.8438  1.4250  0.8381
11520SOL    HW234739   3.320   3.570   3.044  0.0424  0.2026 -1.8712
11521SOL     OW34740   0.529   2.163   3.755  0.3583  0.1629  0.0770
11521SOL    HW134741   0.574   2.075   3.767 -1.2676 -0.8074 -0.5790
11521SOL    HW234742   0.494   2.194   3.844  0.6646 -0.0180  0.2614
11522SOL     OW34743   1.280   0.734   3.113  0.6412  0.3099 -0.2749
11522SOL    HW134744   1.291   0.672   3.191 -0.1105  1.6488  0.9323
11522SOL    HW234745   1.275   0.680   3.029  0.4385 -1.2379  0.6867
11523SOL     OW34746   3.422   0.631   7.868 -0.0356 -0.7743  0.4140
11523SOL    HW134747   3.372   0.611   7.952 -1.5201 -2.3274 -0.7681
11523SOL    HW234748   3.512   0.588   7.871 -0.2922 -1.2837  0.9889
11524SOL     OW34749   0.297   6.749   8.523 -0.1081 -0.2145  0.2928
11524SOL    HW134750   0.247   6.820   8.573 -0.2215  1.7526 -2.4110
11524SOL    HW234751   0.394   6.753   8.547  0.2443  2.2786 -1.2039
11525SOL     OW34752   7.126   7.096   7.980 -0.2058 -0.3197 -0.2612
11525SOL    HW134753   7.129   7.165   7.908 -0.9579  0.3694  0.3456
11525SOL    HW234754   7.119   7.141   8.069 -1.3247 -1.1726  0.1113
11526SOL     OW34755   2.196   2.933   8.092  0.5968  0.7292 -0.0065
11526SOL    HW134756   2.227   2.878   8.015 -0.6924 -0.0684  0.0177
11526SOL    HW234757   2.251   2.912   8.173  0.2628 -0.3938 -0.0530
11527SOL     OW34758   2.715   3.691   7.318  0.2432 -1.0964 -0.5563
11527SOL    HW134759   2.649   3.760   7.349  0.5384 -0.4235 -1.3981
11527SOL    HW234760   2.739   3.631   7.395  0.0920 -0.1781  0.2202
11528SOL     OW34761   5.839   1.695   8.673  0.2271 -0.0804 -0.8720
11528SOL    HW134762   5.874   1.603   8.655  0.5777 -0.2427  0.4763
11528SOL    HW234763   5.806   1.700   8.768 -1.8409  0.5764 -1.5792
11529SOL     OW34764   2.254   7.803   2.940 -0.2549 -0.4510 -0.2035
11529SOL    HW134765   2.324   7.857   2.893 -2.0826  1.6947 -0.6361
11529SOL    HW234766   2.253   7.827   3.037 -1.0167  0.2572 -0.3811
11530SOL     OW34767   4.662   6.075   5.837  0.3611 -0.1537  0.0588
11530SOL    HW134768   4.713   6.161   5.840  1.1458 -0.6321  1.5377
11530SOL    HW234769   4.702   6.015   5.768  1.1948 -0.1513  0.5298
11531SOL     OW34770   6.304   5.043   3.014  0.5992  0.1006 -0.4525
11531SOL    HW134771   6.210   5.035   3.048  1.1715  0.2091  1.2590
11531SOL    HW234772   6.334   5.138   3.022  2.0054 -0.4442  2.4947
11532SOL     OW34773   5.349   1.931   6.443  0.3923 -0.0622  0.4288
11532SOL    HW134774   5.329   1.906   6.349 -0.4996  0.8819  0.3497
11532SOL    HW234775   5.374   2.028   6.447  2.1862 -0.5050  0.9326
11533SOL     OW34776   3.093   1.577   8.646  0.0305 -0.0849 -0.0048
11533SOL    HW134777   3.184   1.571   8.606  0.7361  2.0149  1.1476
11533SOL    HW234778   3.028   1.609   8.577  1.3500  4.1226  0.4054
11534SOL     OW34779   0.469   2.909   4.551 -0.1925 -0.5674 -0.0215
11534SOL    HW134780   0.552   2.963   4.565  1.6091 -2.9801 -0.7677
11534SOL    HW234781   0.408   2.958   4.488  2.3078 -0.2344 -2.3730
11535SOL     OW34782   8.086   7.248   1.133 -0.0021 -0.0053  0.3649
11535SOL    HW134783   8.152   7.281   1.200  0.3282 -0.7648  0.4196
11535SOL    HW234784   8.042   7.165   1.167 -0.3429  0.0019 -0.0515
11536SOL     OW34785   1.867   5.639   3.704  0.4941 -0.2680  0.5345
11536SOL    HW134786   1.926   5.651   3.784  2.5784 -1.3885 -0.7319
11536SOL    HW234787   1.882   5.549   3.665 -0.0282  0.4445 -1.4344
11537SOL     OW34788   5.834   2.353   6.533  0.3625 -0.2348 -0.5932
11537SOL    HW134789   5.836   2.420   6.459 -0.3655 -0.4892 -0.8485
11537SOL    HW234790   5.923   2.307   6.538  0.3961 -0.2658 -1.3633
11538SOL     OW34791   6.947   4.157   7.265  0.3292 -0.0453  0.3823
11538SOL    HW134792   6.991   4.243   7.289 -0.4454  0.1954  0.9782
11538SOL    HW234793   6.936   4.101   7.347  0.5803 -0.6024  0.0436
11539SOL     OW34794   7.038   4.915   1.806 -0.0766  0.4934 -0.6697
11539SOL    HW134795   7.042   5.014   1.821 -1.9178  0.4217  0.5242
11539SOL    HW234796   7.054   4.896   1.709  1.8981  1.7990 -0.6669
11540SOL     OW34797   7.302   2.795   4.095 -0.3396 -0.0911 -0.4238
11540SOL    HW134798   7.242   2.832   4.025  0.6791 -1.3139 -2.0396
11540SOL    HW234799   7.394   2.785   4.058  0.1741 -1.0553  1.0024
11541SOL     OW34800   8.315   0.373   4.147 -0.1988  0.4970 -0.1276
11541SOL    HW134801   8.301   0.456   4.201  0.4346  1.2633 -1.1047
11541SOL    HW234802   8.389   0.388   4.082  0.0475 -0.9054 -0.2038
11542SOL     OW34803   1.656   0.412   2.338  0.2142  0.2768 -0.0832
11542SOL    HW134804   1.563   0.414   2.377  0.2155  2.0744 -0.0834
11542SOL    HW234805   1.705   0.334   2.375 -0.9902 -0.1558  0.6850
11543SOL     OW34806   4.184   1.234   3.571  0.1291 -0.0984 -0.0916
11543SOL    HW134807   4.131   1.308   3.529 -0.1948  0.0212  0.5167
11543SOL    HW234808   4.129   1.189   3.641  0.7758 -0.0714  0.4441
11544SOL     OW34809   1.518   3.562   5.765 -0.0596  0.4926 -0.2014
11544SOL    HW134810   1.511   3.463   5.751  0.6747  0.1600  1.5265
11544SOL    HW234811   1.603   3.583   5.813 -0.7353  1.8546  0.4625
11545SOL     OW34812   2.273   4.524   1.388 -0.2074 -0.0328  0.1986
11545SOL    HW134813   2.246   4.487   1.478  0.4388 -1.6061 -0.2266
11545SOL    HW234814   2.202   4.501   1.321 -1.6553  2.7988  0.6051
11546SOL     OW34815   7.705   3.968   8.478 -0.0945 -0.1762 -0.0148
11546SOL    HW134816   7.737   4.062   8.470 -0.6373 -0.0195 -0.3796
11546SOL    HW234817   7.709   3.939   8.574  1.5414 -0.3094 -0.0915
11547SOL     OW34818   4.228   4.557   5.676 -0.1370  0.5318 -0.4561
11547SOL    HW134819   4.269   4.619   5.609  1.0736 -0.4040 -0.6052
11547SOL    HW234820   4.270   4.571   5.765  0.9930 -0.8667 -0.7474
11548SOL     OW34821   2.732   5.314   4.600 -0.0209  0.0277 -0.1202
11548SOL    HW134822   2.729   5.391   4.663 -2.5348 -0.3616  0.3463
11548SOL    HW234823   2.738   5.347   4.506  2.0003  0.6554  0.1864
11549SOL     OW34824   3.506   5.655   4.000 -0.2468 -0.3248  0.1192
11549SOL    HW134825   3.487   5.709   3.918 -0.9803 -0.6158  0.0922
11549SOL    HW234826   3.460   5.695   4.079 -1.0008 -1.0395  0.0551
11550SOL     OW34827   4.357   4.973   6.771  0.8035 -0.2554 -0.0934
11550SOL    HW134828   4.415   4.891   6.772  0.0253 -0.8187 -0.0976
11550SOL    HW234829   4.282   4.959   6.706  1.8745  1.3276 -1.7644
11551SOL     OW34830   2.044   1.512   1.900  0.3233 -0.4261 -0.2151
11551SOL    HW134831   2.099   1.541   1.978 -1.8691 -1.1613  1.7098
11551SOL    HW234832   2.075   1.423   1.868  0.2286 -0.8714  0.8953
11552SOL     OW34833   2.632   5.685   4.999 -0.5607  0.6463 -0.2788
11552SOL    HW134834   2.578   5.695   4.916 -3.6181  0.5970  1.5454
11552SOL    HW234835   2.639   5.588   5.022  2.1174  0.4723 -1.4983
11553SOL     OW34836   2.267   6.514   6.059  0.3206 -0.4894 -0.1926
11553SOL    HW134837   2.336   6.443   6.075 -0.1712 -0.8945  0.1327
11553SOL    HW234838   2.229   6.504   5.968 -0.7037 -1.4784  0.3249
11554SOL     OW34839   5.317   5.021   0.092  0.0568 -0.3879  0.1954
11554SOL    HW134840   5.391   4.964   0.127  2.0364  1.8004 -0.2130
11554SOL    HW234841   5.282   4.983   0.007  0.5176 -1.5931  0.5304
11555SOL     OW34842   1.574   0.364   0.854  0.2141  0.3152  0.6681
11555SOL    HW134843   1.667   0.335   0.877  0.2218 -0.0740  0.1625
11555SOL    HW234844   1.511   0.333   0.925  0.0704 -1.8402 -0.3324
11556SOL     OW34845   2.437   6.194   1.849  1.0618  0.5698 -0.1739
11556SOL    HW134846   2.349   6.161   1.814  0.6170  0.6749  0.8243
11556SOL    HW234847   2.423   6.281   1.896  1.7397  0.6865 -0.1838
11557SOL     OW34848   0.634   6.111   1.267 -0.5592  0.0388  0.7832
11557SOL    HW134849   0.693   6.035   1.242 -1.8122 -1.8134  3.0709
11557SOL    HW234850   0.655   6.141   1.360  0.4166  3.1294 -0.2792
11558SOL     OW34851   6.323   2.790   1.928  0.2591  0.4310 -0.3518
11558SOL    HW134852   6.254   2.802   1.999 -1.9970 -0.0934 -2.3570
11558SOL    HW234853   6.414   2.796   1.970 -0.8760  3.0682  2.1078
11559SOL     OW34854   7.841   4.663   2.250 -0.2198  0.2189  0.7490
11559SOL    HW134855   7.829   4.610   2.166  0.5957 -0.1433  0.8562
11559SOL    HW234856   7.884   4.750   2.229 -2.3038  1.2363  0.4570
11560SOL     OW34857   4.811   8.363   4.365 -0.0021  0.3783  0.4449
11560SOL    HW134858   4.762   8.410   4.292  1.6938  1.6253  0.0485
11560SOL    HW234859   4.876   8.426   4.408  0.3761 -0.8620  1.7797
11561SOL     OW34860   3.446   2.133   4.031 -0.0354  0.0719 -0.0651
11561SOL    HW134861   3.456   2.212   3.970 -1.4315  0.7230  0.5050
11561SOL    HW234862   3.415   2.164   4.121 -2.8472 -1.2475 -0.4652
11562SOL     OW34863   6.305   0.776   3.797  0.1899 -0.5378  0.6361
11562SOL    HW134864   6.402   0.792   3.816  0.3438 -0.3227 -0.3141
11562SOL    HW234865   6.252   0.857   3.822  0.5326  0.1797 -0.8567
11563SOL     OW34866   7.079   8.829   7.404 -0.0012  0.3918  0.1557
11563SOL    HW134867   7.066   8.733   7.430 -1.0233  0.7790  1.0981
11563SOL    HW234868   7.113   8.881   7.482 -2.4612  1.4229  0.6243
11564SOL     OW34869   5.404   2.786   3.643  0.2926  0.0372  0.2915
11564SOL    HW134870   5.365   2.712   3.699 -0.7234  0.1538 -0.2430
11564SOL    HW234871   5.398   2.872   3.693 -0.5222  0.1239  0.0689
11565SOL     OW34872   3.856   8.183   7.987  0.3984 -0.2595  0.1943
11565SOL    HW134873   3.953   8.194   7.967  0.1928 -1.0341 -1.4097
11565SOL    HW234874   3.826   8.092   7.959 -0.7028 -0.1965  1.0900
11566SOL     OW34875   2.593   4.424   8.309 -0.7601 -0.7160  0.0065
11566SOL    HW134876   2.683   4.433   8.350 -0.5759  1.0265 -0.6765
11566SOL    HW234877   2.600   4.436   8.210 -1.5786 -1.9583 -0.2311
11567SOL     OW34878   7.309   2.508   4.757 -0.4643  0.0749  0.4872
11567SOL    HW134879   7.259   2.549   4.833  0.5902 -0.7677  1.6688
11567SOL    HW234880   7.394   2.466   4.790  0.6599  0.7442 -1.3188
11568SOL     OW34881   0.301   5.143   1.277 -0.7594  0.0988 -0.5589
11568SOL    HW134882   0.361   5.136   1.197 -3.8242  0.1527 -3.0817
11568SOL    HW234883   0.324   5.071   1.342  2.0858  0.2675 -1.2323
11569SOL     OW34884   4.363   7.132   5.424 -0.2051 -0.4292 -0.3067
11569SOL    HW134885   4.316   7.217   5.450 -0.7267 -1.4580  2.4413
11569SOL    HW234886   4.304   7.078   5.365 -1.1243 -0.2235  0.4047
11570SOL     OW34887   2.654   8.250   6.089  0.3313 -0.0560  0.3262
11570SOL    HW134888   2.614   8.257   5.997  0.7878 -0.2210  0.1144
11570SOL    HW234889   2.595   8.298   6.154  1.3271  2.3342 -0.4462
11571SOL     OW34890   7.692   2.752   0.377 -0.4360 -0.1258  0.5050
11571SOL    HW134891   7.746   2.761   0.460  1.3627 -1.5484 -0.4422
11571SOL    HW234892   7.652   2.661   0.371 -0.3260 -0.1369 -0.2967
11572SOL     OW34893   7.300   0.055   1.823  0.0122  0.7244  0.3118
11572SOL    HW134894   7.266   0.087   1.911  1.9683  1.4421  0.8531
11572SOL    HW234895   7.318  -0.043   1.828  0.8199  0.9003  0.9613
11573SOL     OW34896   4.779   7.960   6.296 -0.3367  0.7922  0.1918
11573SOL    HW134897   4.742   7.949   6.388 -1.1187 -0.0801 -0.2097
11573SOL    HW234898   4.840   7.883   6.275 -0.6288  0.6710 -0.2344
11574SOL     OW34899   7.252   6.024   1.930 -0.3878 -0.6697  0.2732
11574SOL    HW134900   7.245   6.030   2.030  0.5448 -0.7871  0.3578
11574SOL    HW234901   7.221   5.934   1.900  0.6454 -1.1574  0.6088
11575SOL     OW34902   2.411   2.606   5.994 -0.1166  0.5844 -0.0335
11575SOL    HW134903   2.380   2.595   6.088  0.8161  1.5743  0.4185
11575SOL    HW234904   2.337   2.643   5.939 -0.1238  1.8660  0.7760
11576SOL     OW34905   2.875   8.085   0.268  0.5318  0.2120  0.1108
11576SOL    HW134906   2.851   8.153   0.199 -0.6463  0.1012  0.3912
11576SOL    HW234907   2.797   8.068   0.328  1.8039  1.0734  2.1503
11577SOL     OW34908   4.373   0.149   5.464  0.3361 -0.2476 -0.3376
11577SOL    HW134909   4.285   0.173   5.423  0.9614  3.1908  0.0440
11577SOL    HW234910   4.441   0.139   5.391  0.2185 -0.1843 -0.4570
11578SOL     OW34911   7.304   8.407   7.187 -0.1053 -0.3209  0.4302
11578SOL    HW134912   7.275   8.360   7.104 -0.8304  0.4169  0.2502
11578SOL    HW234913   7.392   8.371   7.217  0.9424  0.4705 -1.5360
11579SOL     OW34914   1.793   8.182   2.105  0.5141 -0.3882 -0.4777
11579SOL    HW134915   1.869   8.119   2.089 -0.1919 -1.5586  0.5853
11579SOL    HW234916   1.734   8.146   2.178  1.7318  2.9249  2.4659
11580SOL     OW34917   0.800   3.820   3.875 -0.0845 -0.5116  0.1228
11580SOL    HW134918   0.784   3.723   3.857 -0.1025 -0.7543  1.3604
11580SOL    HW234919   0.897   3.841   3.859  0.1645 -1.0011  0.8879
11581SOL     OW34920   3.094   6.819   2.222 -0.1592  0.1704  0.1372
11581SOL    HW134921   3.032   6.761   2.168 -0.9644 -0.4622  1.6934
11581SOL    HW234922   3.174   6.765   2.250  0.2615  0.5008 -0.4086
11582SOL     OW34923   1.714   7.102   6.564  0.2056  0.2006  0.4953
11582SOL    HW134924   1.643   7.129   6.629  1.6392  0.2301  2.1027
11582SOL    HW234925   1.784   7.173   6.559  1.0655 -0.6361  0.3715
11583SOL     OW34926   0.368   7.710   0.544 -0.3498  0.2435  0.1003
11583SOL    HW134927   0.308   7.642   0.585 -0.8494  0.8441  0.3887
11583SOL    HW234928   0.314   7.771   0.486 -0.2953  1.7142  1.5393
11584SOL     OW34929   5.943   6.719   0.430 -0.2044  0.2011 -0.0898
11584SOL    HW134930   5.991   6.717   0.517  0.5737  2.5650 -0.4097
11584SOL    HW234931   6.004   6.755   0.359 -1.7312  1.0833 -1.0034
11585SOL     OW34932   7.096   3.364   0.751 -0.6707  0.2105 -0.7034
11585SOL    HW134933   7.027   3.432   0.725 -0.4340 -0.4379 -3.3094
11585SOL    HW234934   7.052   3.291   0.804 -1.0539  1.9971  1.5402
11586SOL     OW34935   5.800   8.047   7.775 -0.1505 -0.3893 -0.1894
11586SOL    HW134936   5.871   8.019   7.840  0.0460 -1.3103 -0.7811
11586SOL    HW234937   5.756   7.965   7.737 -0.7959  0.1579 -0.6306
11587SOL     OW34938   0.479   1.546   0.957 -0.0606  0.1651  0.2298
11587SOL    HW134939   0.504   1.547   1.053  0.4356 -0.2602  0.1107
11587SOL    HW234940   0.547   1.596   0.903  0.0220 -0.1652  0.0222
11588SOL     OW34941   2.139   0.858   4.264 -0.0956 -0.0391 -0.3086
11588SOL    HW134942   2.080   0.937   4.246 -0.0155  0.1169  0.1021
11588SOL    HW234943   2.142   0.841   4.362  2.3346  1.3653 -0.0733
11589SOL     OW34944   8.277   7.076   1.008 -0.0187  0.2983  0.2997
11589SOL    HW134945   8.351   7.137   0.979  0.5708 -0.0954  0.9242
11589SOL    HW234946   8.195   7.129   1.029  0.0721  0.7380 -0.4378
11590SOL     OW34947   0.532   7.686   5.723 -0.4599  0.0990  0.4708
11590SOL    HW134948   0.439   7.649   5.729 -0.9481  1.5001  2.3461
11590SOL    HW234949   0.594   7.628   5.777 -0.4309 -0.2378  0.0835
11591SOL     OW34950   1.204   6.387   5.550 -0.5026  0.5084 -0.5330
11591SOL    HW134951   1.294   6.378   5.508  0.5860 -2.5074  2.0572
11591SOL    HW234952   1.145   6.311   5.520 -1.3918  1.1183 -0.3820
11592SOL     OW34953   1.887   2.170   5.667  0.0994 -0.3351 -0.0378
11592SOL    HW134954   1.946   2.245   5.637  0.2363 -0.0852  0.8244
11592SOL    HW234955   1.813   2.206   5.723 -0.3755 -0.7484 -0.3875
11593SOL     OW34956   2.272   2.590   1.205 -0.1114  0.1443  0.4263
11593SOL    HW134957   2.257   2.500   1.162  1.2418  0.7881 -1.5579
11593SOL    HW234958   2.197   2.651   1.182 -0.2749 -0.0350  0.4825
11594SOL     OW34959   3.082   0.976   2.390 -0.0206 -0.0039 -0.1211
11594SOL    HW134960   3.003   1.025   2.354  0.5112  0.6952 -0.3835
11594SOL    HW234961   3.093   0.998   2.487  0.1295  0.2992 -0.2029
11595SOL     OW34962   4.113   8.610   7.011  0.5110  0.4593  0.4434
11595SOL    HW134963   4.086   8.645   6.922  0.4562  0.4179  0.4441
11595SOL    HW234964   4.043   8.548   7.046 -0.5488  2.1474  1.4918
11596SOL     OW34965   5.026   3.979   6.364 -0.2479 -0.5219 -1.1487
11596SOL    HW134966   5.115   3.933   6.363  1.4957  2.4545  1.0450
11596SOL    HW234967   5.035   4.072   6.327 -1.6571  0.9342  1.7958
11597SOL     OW34968   4.214   3.167   1.117  0.3799  0.1224 -0.4915
11597SOL    HW134969   4.145   3.166   1.045  0.8807  2.9040 -1.1497
11597SOL    HW234970   4.305   3.162   1.075  0.6846  2.0120 -0.1428
11598SOL     OW34971   5.910   6.265   2.850  0.1587  0.3386 -0.7722
11598SOL    HW134972   5.931   6.168   2.848 -0.6350  0.1173  0.3168
11598SOL    HW234973   5.991   6.318   2.824  0.7613 -0.5878 -0.8205
11599SOL     OW34974   6.826   0.315   6.105  0.5648 -0.0243  0.0655
11599SOL    HW134975   6.799   0.353   6.193  1.2099  0.1212  0.2045
11599SOL    HW234976   6.921   0.283   6.110 -0.0057 -1.8823  0.0446
11600SOL     OW34977   6.758   0.950   6.747 -0.4118 -0.0658 -0.6918
11600SOL    HW134978   6.699   1.001   6.684 -0.1845 -1.2410 -1.9148
11600SOL    HW234979   6.847   0.996   6.753  0.0367 -0.6265 -2.3327
11601SOL     OW34980   3.860   1.258   1.553 -0.4206 -0.1361 -0.4188
11601SOL    HW134981   3.790   1.326   1.532  0.7041  1.1697 -0.0783
11601SOL    HW234982   3.908   1.284   1.637 -0.3810 -1.7005  0.0718
11602SOL     OW34983   1.401   5.513   1.843  0.1049 -0.3007 -0.2017
11602SOL    HW134984   1.313   5.559   1.828 -0.7894 -1.2583  1.7052
11602SOL    HW234985   1.466   5.578   1.882 -0.0639  0.1774 -0.7005
11603SOL     OW34986   7.593   6.592   0.508 -0.0535 -0.1570  0.0521
11603SOL    HW134987   7.524   6.527   0.540  0.8459 -1.4224 -0.4722
11603SOL    HW234988   7.679   6.543   0.492  0.4793  1.0596 -0.9566
11604SOL     OW34989   7.271   5.518   5.511 -0.4439  0.6062 -0.0400
11604SOL    HW134990   7.296   5.423   5.494  1.2929  0.9988  0.1278
11604SOL    HW234991   7.230   5.526   5.602 -0.9825 -0.0242 -0.2146
11605SOL     OW34992   3.643   5.949   2.037  0.3368 -0.1793  0.4218
11605SOL    HW134993   3.675   5.986   1.950 -0.5616  0.9420  0.5338
11605SOL    HW234994   3.642   6.022   2.106 -1.4951 -0.3725  0.6596
11606SOL     OW34995   0.515   7.563   7.384  0.1000  0.5910  0.1486
11606SOL    HW134996   0.527   7.638   7.319 -1.3882  2.2372  1.6759
11606SOL    HW234997   0.432   7.512   7.360  1.8486 -1.6070 -1.7463
11607SOL     OW34998   4.160   4.825   7.328 -0.1711 -0.6231 -0.3103
11607SOL    HW134999   4.178   4.869   7.240 -0.3973 -0.5175 -0.3045
11607SOL    HW235000   4.065   4.794   7.331 -0.5957  0.6934  0.4636
11608SOL     OW35001   2.662   2.896   8.295  0.0378 -0.0559 -0.3826
11608SOL    HW135002   2.711   2.809   8.286  1.3629  0.4373  1.4370
11608SOL    HW235003   2.693   2.943   8.378 -0.3768  2.3406 -1.5082
11609SOL     OW35004   8.204   8.137   2.011 -0.6542  0.8373 -0.5607
11609SOL    HW135005   8.278   8.178   1.958 -0.5979 -0.0897 -1.2134
11609SOL    HW235006   8.174   8.053   1.967 -1.4500  0.7014  0.2204
11610SOL     OW35007   1.569   1.879   3.242  0.3313 -0.0798  0.4852
11610SOL    HW135008   1.475   1.893   3.272 -0.0341  0.7257 -0.9333
11610SOL    HW235009   1.579   1.915   3.149  1.9291 -0.5626  0.4560
11611SOL     OW35010   8.023   3.060   4.389 -0.1866  0.3683  0.1292
11611SOL    HW135011   8.061   3.030   4.301  0.1080  0.2364  0.2997
11611SOL    HW235012   8.022   2.983   4.452  0.3631  0.6617  0.5004
11612SOL     OW35013   5.337   8.573   8.702  0.5995  0.3371  0.0088
11612SOL    HW135014   5.288   8.659   8.687  0.4253  0.4566  1.1378
11612SOL    HW235015   5.427   8.592   8.741  1.8889  0.1587 -2.6901
11613SOL     OW35016   4.612   3.412   8.678 -0.4464 -0.0504  1.1729
11613SOL    HW135017   4.516   3.440   8.686  0.2730  2.1419  5.0863
11613SOL    HW235018   4.662   3.443   8.759  3.6986 -0.8321 -0.8172
11614SOL     OW35019   7.367   4.217   7.997  0.2495  0.0168  0.0942
11614SOL    HW135020   7.286   4.215   7.938  0.4251 -0.5629 -0.1296
11614SOL    HW235021   7.340   4.198   8.091  0.1425 -0.3233 -0.0047
11615SOL     OW35022   6.857   1.447   1.530 -0.3197  0.7975 -0.3004
11615SOL    HW135023   6.876   1.368   1.587  0.7714  0.3014 -1.3004
11615SOL    HW235024   6.778   1.497   1.566 -1.3332 -1.0118  0.0725
11616SOL     OW35025   8.417   1.504   5.733 -0.3001  0.1253 -0.5293
11616SOL    HW135026   8.487   1.433   5.727 -0.1047  0.1005  1.3831
11616SOL    HW235027   8.326   1.463   5.722 -0.0875  0.0412 -2.2261
11617SOL     OW35028   2.699   1.339   0.143 -0.1772  0.1357 -0.1011
11617SOL    HW135029   2.675   1.390   0.060  0.1713 -0.0445 -0.3173
11617SOL    HW235030   2.651   1.251   0.143  0.9471 -0.5032 -0.8527
11618SOL     OW35031   0.787   2.643   6.716 -0.2134  0.0672  0.1906
11618SOL    HW135032   0.694   2.673   6.740 -1.5593 -1.7192 -2.3441
11618SOL    HW235033   0.823   2.588   6.791 -1.0627  0.9865  1.3326
11619SOL     OW35034   1.626   3.689   1.251  0.1324  0.2773  0.3939
11619SOL    HW135035   1.682   3.672   1.170 -0.3944  0.3127  0.0148
11619SOL    HW235036   1.678   3.743   1.317  1.4798 -1.8731  1.1897
11620SOL     OW35037   2.740   6.545   5.924 -1.1381  0.6510  0.4239
11620SOL    HW135038   2.806   6.470   5.921 -1.7071  0.1531  0.0181
11620SOL    HW235039   2.660   6.516   5.977 -1.1268  1.1651  0.7240
11621SOL     OW35040   4.322   8.041   0.510 -0.0673 -0.1785  0.2302
11621SOL    HW135041   4.391   7.974   0.537  0.2480  0.2260  0.4317
11621SOL    HW235042   4.330   8.059   0.412  0.7343  0.5719  0.4259
11622SOL     OW35043   2.385   2.918   5.943 -0.5664  0.3121  0.2668
11622SOL    HW135044   2.377   3.010   5.906 -1.0149  1.3123  2.6532
11622SOL    HW235045   2.307   2.863   5.913 -1.1140  1.1901  0.0424
11623SOL     OW35046   7.375   0.650   7.581  0.4849 -0.2747  0.7903
11623SOL    HW135047   7.326   0.574   7.539  1.1781 -1.6161  2.2944
11623SOL    HW235048   7.452   0.678   7.523  0.3287 -0.8468  0.3110
11624SOL     OW35049   0.868   8.531   3.357 -0.5254  0.4331  0.0316
11624SOL    HW135050   0.770   8.532   3.373 -0.8874 -0.8252 -1.8569
11624SOL    HW235051   0.899   8.623   3.332 -1.3160  0.7084  0.0488
11625SOL     OW35052   8.068   4.527   6.426 -0.2043  0.1594  0.1273
11625SOL    HW135053   8.105   4.575   6.505  0.6019  0.3376 -0.3429
11625SOL    HW235054   8.064   4.591   6.348 -0.8162 -0.0590 -0.0254
11626SOL     OW35055   3.122   1.636   5.962  0.3276 -0.5406  0.2725
11626SOL    HW135056   3.144   1.668   5.869  0.1129 -1.9621 -0.3015
11626SOL    HW235057   3.036   1.677   5.991 -0.4669 -1.3386 -0.8544
11627SOL     OW35058   4.792   6.971   0.333  0.1830 -0.2625  0.0257
11627SOL    HW135059   4.828   6.878   0.329 -0.4635 -0.5633  0.8325
11627SOL    HW235060   4.700   6.969   0.373 -0.1918  0.6293 -0.7559
11628SOL     OW35061   5.277   0.860   4.837  0.0938 -0.1656 -0.7189
11628SOL    HW135062   5.288   0.804   4.756  0.6606  1.2223 -1.6430
11628SOL    HW235063   5.200   0.922   4.825 -0.2997 -0.4752  0.1285
11629SOL     OW35064   7.536   1.245   0.888 -0.3587 -0.2242 -0.7344
11629SOL    HW135065   7.484   1.172   0.842 -0.3835 -2.3655  2.3629
11629SOL    HW235066   7.481   1.282   0.963  0.9135  0.6901 -0.2251
11630SOL     OW35067   2.496   5.013   4.275 -0.6873 -0.1527 -1.0890
11630SOL    HW135068   2.468   4.919   4.252 -2.1528  0.4680 -1.9920
11630SOL    HW235069   2.515   5.064   4.191  2.4821 -0.2594 -0.5444
11631SOL     OW35070   7.733   5.923   3.671  0.4661  0.5707 -0.5590
11631SOL    HW135071   7.686   5.864   3.606 -0.8775  0.6070  0.3417
11631SOL    HW235072   7.769   5.868   3.747  1.4020  0.6191 -0.9483
11632SOL     OW35073   8.269   8.467   3.520 -0.5454  0.1766  0.0838
11632SOL    HW135074   8.193   8.532   3.523  0.8002  1.8050  1.4761
11632SOL    HW235075   8.289   8.444   3.424 -2.7617 -0.3318 -0.3085
11633SOL     OW35076   3.238   1.038   4.182  0.0032  0.7964 -0.0134
11633SOL    HW135077   3.269   0.993   4.266  1.0297  0.8359 -0.3635
11633SOL    HW235078   3.233   1.137   4.197  0.7723  0.8618 -0.1752
11634SOL     OW35079   2.264   8.011   2.411 -0.5777  0.4653 -0.2932
11634SOL    HW135080   2.199   7.938   2.387  0.1850 -0.0592 -0.8028
11634SOL    HW235081   2.334   7.975   2.473 -0.4185  0.8687 -0.2347
11635SOL     OW35082   6.383   3.553   1.026 -0.4392 -0.1297 -0.5709
11635SOL    HW135083   6.348   3.547   1.120 -0.6280 -1.3139 -0.7050
11635SOL    HW235084   6.431   3.469   1.003 -2.2831 -0.7988 -2.2853
11636SOL     OW35085   5.007   6.262   7.723  0.1020  1.0551  0.2885
11636SOL    HW135086   4.999   6.163   7.733  1.8357  0.6712 -1.5778
11636SOL    HW235087   5.096   6.292   7.757 -0.5537  2.0540  1.1820
11637SOL     OW35088   1.361   6.005   2.061 -0.2183  0.1450  0.4273
11637SOL    HW135089   1.403   6.011   2.151 -2.3507  1.7785  1.4000
11637SOL    HW235090   1.267   5.971   2.070 -1.1029  2.0759 -0.9150
11638SOL     OW35091   2.369   0.145   6.177  0.1223 -0.0508  0.2730
11638SOL    HW135092   2.409   0.168   6.266 -0.5871  0.7485  0.4040
11638SOL    HW235093   2.438   0.100   6.120  0.8497  0.2312  0.9045
11639SOL     OW35094   6.768   8.552   7.508 -0.4543 -0.4033  0.7073
11639SOL    HW135095   6.711   8.479   7.546 -2.0079  0.6986  0.5751
11639SOL    HW235096   6.793   8.616   7.582  1.4474 -1.3567  0.9564
11640SOL     OW35097   0.802   1.924   4.825 -0.0079  0.1722  0.4340
11640SOL    HW135098   0.830   1.990   4.755  1.6918 -0.0482  0.8627
11640SOL    HW235099   0.812   1.965   4.916 -0.2066 -0.2362  0.6409
11641SOL     OW35100   0.771   6.797   3.617  0.2168 -0.3472  0.4169
11641SOL    HW135101   0.821   6.866   3.566  0.2304  0.1722  1.1200
11641SOL    HW235102   0.675   6.823   3.623 -0.3022 -1.6061 -1.3997
11642SOL     OW35103   5.022   4.584   1.816  0.0949  0.2088 -0.2920
11642SOL    HW135104   4.976   4.644   1.751 -1.7899  0.6887  1.3770
11642SOL    HW235105   4.954   4.529   1.864  1.4146 -0.2670  1.1196
11643SOL     OW35106   1.469   7.419   7.378  0.1350 -0.6134  0.1946
11643SOL    HW135107   1.555   7.381   7.343  0.0094  0.3272 -1.2185
11643SOL    HW235108   1.461   7.399   7.475  1.8321 -0.9621  0.2958
11644SOL     OW35109   8.758   0.986   3.322  0.2940 -0.3515 -0.2137
11644SOL    HW135110   8.727   0.985   3.227 -2.0359 -0.4206  0.4815
11644SOL    HW235111   8.747   0.895   3.362  1.5429 -0.4000  0.0726
11645SOL     OW35112   0.446   4.291   2.268  0.4171  0.4168 -0.6016
11645SOL    HW135113   0.448   4.311   2.170  0.2424 -0.4723 -0.7959
11645SOL    HW235114   0.354   4.309   2.304 -0.1472 -1.2864 -1.0716
11646SOL     OW35115   4.224   0.817   1.588 -0.3356  0.9935  0.0829
11646SOL    HW135116   4.131   0.823   1.624  0.0106  0.7915  1.0568
11646SOL    HW235117   4.275   0.748   1.640  0.1389  0.5519 -0.9379
11647SOL     OW35118   8.329   8.646   6.613  0.1348  0.1981 -0.0905
11647SOL    HW135119   8.277   8.715   6.562  0.1636  0.2546 -0.0428
11647SOL    HW235120   8.275   8.616   6.691 -0.4997 -0.8873 -0.9107
11648SOL     OW35121   3.477   6.339   3.248 -1.0319 -0.0477 -0.3891
11648SOL    HW135122   3.458   6.343   3.150 -0.6833  1.3537 -0.4264
11648SOL    HW235123   3.558   6.394   3.268 -0.9866 -0.4796  0.6677
11649SOL     OW35124   2.298   8.775   7.833 -0.5762  0.4484 -0.1463
11649SOL    HW135125   2.355   8.748   7.910 -1.6693 -0.1710  0.4612
11649SOL    HW235126   2.293   8.700   7.767  0.2460  0.9276 -0.7756
11650SOL     OW35127   2.456   2.300   4.424  0.0525  0.1467  0.0677
11650SOL    HW135128   2.398   2.311   4.505  0.2082  1.0583  0.0639
11650SOL    HW235129   2.401   2.271   4.346  0.0840 -2.0290  0.7753
11651SOL     OW35130   3.341   4.123   5.210 -1.0777  0.6942  0.2625
11651SOL    HW135131   3.328   4.024   5.196 -1.0715  0.7677 -0.2800
11651SOL    HW235132   3.435   4.141   5.237 -1.4208  0.4144  1.7445
11652SOL     OW35133   1.477   5.288   2.018 -0.1882  0.3915  0.0203
11652SOL    HW135134   1.417   5.341   1.958  0.5319  1.6711  0.3860
11652SOL    HW235135   1.554   5.345   2.046  0.9706 -1.0671 -0.0789
11653SOL     OW35136   8.069   2.469   4.697  0.8507 -0.8150 -0.1852
11653SOL    HW135137   8.083   2.429   4.787 -1.7789 -1.0828  0.1606
11653SOL    HW235138   8.019   2.555   4.706  3.4903  0.9753 -1.1938
11654SOL     OW35139   4.660   1.367   4.616  0.3156  0.2017 -0.5059
11654SOL    HW135140   4.691   1.370   4.521 -0.9201 -0.7047 -0.9702
11654SOL    HW235141   4.567   1.329   4.619 -0.9251  3.0489  0.7743
11655SOL     OW35142   4.549   0.305   6.599 -0.0505  0.1455 -0.2019
11655SOL    HW135143   4.639   0.296   6.556 -0.4019 -1.6775 -0.6337
11655SOL    HW235144   4.560   0.340   6.692  0.9186  1.8471 -0.9053
11656SOL     OW35145   3.788   3.083   5.891  0.3468  0.7453  0.0102
11656SOL    HW135146   3.741   3.141   5.824  0.0305  1.0061  0.4551
11656SOL    HW235147   3.745   2.993   5.893 -0.1911  1.0086  0.4727
11657SOL     OW35148   1.982   0.900   3.449 -0.1117 -0.2847  0.1730
11657SOL    HW135149   1.971   0.991   3.488 -1.7682  0.6596 -2.2466
11657SOL    HW235150   1.905   0.842   3.478 -0.7891  0.1041 -0.7969
11658SOL     OW35151   7.838   1.234   5.569  0.6135  0.0274  0.2337
11658SOL    HW135152   7.851   1.139   5.539 -2.0806 -0.3137 -0.1329
11658SOL    HW235153   7.881   1.247   5.658  0.4255 -1.7618  0.6222
11659SOL     OW35154   1.662   4.798   6.082  0.0970 -0.2463 -0.5119
11659SOL    HW135155   1.590   4.732   6.105 -0.5398  0.9148  1.0454
11659SOL    HW235156   1.643   4.839   5.993 -0.8117 -0.4350 -0.4118
11660SOL     OW35157   1.228   5.018   3.152 -0.1213  0.5031 -0.3045
11660SOL    HW135158   1.293   5.064   3.212  0.6701  0.6450 -1.2396
11660SOL    HW235159   1.245   4.920   3.153  0.0808  0.5343 -0.5047
11661SOL     OW35160   4.555   1.280   3.473  0.2998  0.0223  0.0177
11661SOL    HW135161   4.469   1.238   3.446  1.6848 -2.7804 -0.3973
11661SOL    HW235162   4.600   1.319   3.393  1.6828 -3.0680 -0.8458
11662SOL     OW35163   4.164   8.822   8.362 -0.1755  0.5647  0.0930
11662SOL    HW135164   4.079   8.791   8.404  0.4263  0.9905  1.7071
11662SOL    HW235165   4.242   8.781   8.409  0.5412  0.0521 -1.4652
11663SOL     OW35166   2.590   7.166   3.975  0.3993  0.1728  0.1465
11663SOL    HW135167   2.658   7.213   3.920  0.5918 -0.1832  0.0774
11663SOL    HW235168   2.556   7.227   4.046  0.2402  0.5934 -0.2858
11664SOL     OW35169   8.601   5.309   2.212  0.2452  0.6815 -0.0711
11664SOL    HW135170   8.621   5.211   2.213 -2.0317  0.1494  0.0664
11664SOL    HW235171   8.682   5.361   2.239  1.2792 -1.1923  0.5646
11665SOL     OW35172   4.181   1.430   7.156 -0.1003 -0.2528  0.5602
11665SOL    HW135173   4.238   1.348   7.165 -0.1566 -0.2689  0.7639
11665SOL    HW235174   4.138   1.452   7.244  1.8907  1.4625  1.1779
11666SOL     OW35175   6.283   8.682   8.722 -0.3993  0.3520  0.0366
11666SOL    HW135176   6.325   8.591   8.723 -0.4602  0.3256  0.2050
11666SOL    HW235177   6.191   8.675   8.684 -1.0973  0.0328  1.6837
11667SOL     OW35178   6.731   5.843   4.332  0.3296 -0.7203 -0.4860
11667SOL    HW135179   6.718   5.746   4.310  0.9128 -1.1527  0.9274
11667SOL    HW235180   6.642   5.888   4.338  0.0627 -1.1101 -1.3682
11668SOL     OW35181   3.586   5.327   6.982 -0.3628 -0.0456  0.5157
11668SOL    HW135182   3.585   5.320   7.082 -0.9064  1.8656  0.6976
11668SOL    HW235183   3.672   5.368   6.953  0.0138 -1.0787  0.1289
11669SOL     OW35184   2.006   2.150   1.612  0.0777  0.0071 -0.0133
11669SOL    HW135185   2.005   2.070   1.672 -0.2814  0.8022  1.0770
11669SOL    HW235186   1.932   2.142   1.545  0.4737 -0.8866 -0.3545
11670SOL     OW35187   8.269   1.933   3.141  0.9017  0.3765 -0.2876
11670SOL    HW135188   8.274   1.867   3.066 -1.1108  0.8476 -0.8762
11670SOL    HW235189   8.345   1.916   3.204  1.5833 -1.2043 -1.4497
11671SOL     OW35190   0.570   7.190   7.096 -0.0986 -0.2801  0.5969
11671SOL    HW135191   0.581   7.131   7.176 -2.1241 -0.2637  0.9376
11671SOL    HW235192   0.493   7.253   7.111  1.5131  1.9787 -0.0641
11672SOL     OW35193   3.380   4.952   1.160  1.1256 -0.5480 -0.0832
11672SOL    HW135194   3.400   5.049   1.175  2.5380 -0.6402 -1.1763
11672SOL    HW235195   3.444   4.915   1.093 -0.3308 -1.8878 -0.7946
11673SOL     OW35196   3.165   5.497   8.429 -0.2025  0.1343 -0.2227
11673SOL    HW135197   3.148   5.399   8.439 -0.9163  0.2609 -0.1049
11673SOL    HW235198   3.244   5.512   8.370  0.4379 -0.5261  0.4525
11674SOL     OW35199   2.199   0.040   6.692  0.1187  0.5544 -0.3607
11674SOL    HW135200   2.267   0.079   6.630 -0.4279  0.5887 -0.9635
11674SOL    HW235201   2.208  -0.059   6.694 -0.2003  0.5044 -0.9328
11675SOL     OW35202   0.525   4.618   3.285 -0.0024 -0.1897 -0.5590
11675SOL    HW135203   0.591   4.553   3.324 -0.0565  0.1357  0.0790
11675SOL    HW235204   0.506   4.691   3.351  0.2607  0.6313 -1.3658
11676SOL     OW35205   5.272   5.707   1.150  0.3014  0.1280  0.3329
11676SOL    HW135206   5.233   5.651   1.223  0.3969  1.7902  1.7310
11676SOL    HW235207   5.362   5.740   1.179  0.6811  0.1936 -0.8811
11677SOL     OW35208   6.241   2.540   4.847 -0.0259  0.5968  0.8067
11677SOL    HW135209   6.304   2.486   4.790  0.4401  0.1825  1.6966
11677SOL    HW235210   6.259   2.521   4.943 -0.5401  1.5895  1.1077
11678SOL     OW35211   3.499   5.268   6.610  0.3454 -0.2972  0.1245
11678SOL    HW135212   3.543   5.203   6.672 -1.5078  0.3317  2.2298
11678SOL    HW235213   3.401   5.250   6.607 -0.1542  2.0413  0.3984
11679SOL     OW35214   4.283   3.237   2.803  0.2050 -0.4015  0.2809
11679SOL    HW135215   4.307   3.141   2.786  0.7550 -0.2810  0.3569
11679SOL    HW235216   4.324   3.267   2.889 -1.4898 -0.6213  1.2128
11680SOL     OW35217   0.549   1.777   6.246 -0.1717 -0.2621  0.0458
11680SOL    HW135218   0.624   1.782   6.311  0.5065  2.0381 -0.7951
11680SOL    HW235219   0.462   1.794   6.293  0.3159  1.4821  0.3897
11681SOL     OW35220   5.192   5.832   0.713 -0.2697  0.2512  0.4669
11681SOL    HW135221   5.188   5.736   0.685 -0.5142  0.1060  0.9947
11681SOL    HW235222   5.156   5.841   0.805 -2.8382  1.2592 -0.5505
11682SOL     OW35223   0.064   4.649   1.909 -0.2249 -0.1447  0.5845
11682SOL    HW135224   0.000   4.721   1.880  3.0571  2.1243 -1.6699
11682SOL    HW235225   0.077   4.655   2.008 -2.5911 -0.0007  0.9622
11683SOL     OW35226   7.355   0.495   3.262  0.1248  0.1355 -0.0848
11683SOL    HW135227   7.427   0.518   3.327  0.9933 -0.9338 -0.6241
11683SOL    HW235228   7.281   0.447   3.309  0.7558 -0.6511  0.1165
11684SOL     OW35229   6.202   1.543   0.059  0.3784 -0.5995  0.4328
11684SOL    HW135230   6.105   1.538   0.036  0.5775  2.5437 -1.6825
11684SOL    HW235231   6.216   1.614   0.128  1.3303  0.8376 -1.1540
11685SOL     OW35232   4.505   4.165   1.205 -0.3252  0.3407 -0.6072
11685SOL    HW135233   4.575   4.140   1.139 -0.2767  1.8126 -1.1575
11685SOL    HW235234   4.547   4.219   1.279 -1.0009  2.2192 -1.5280
11686SOL     OW35235   6.459   4.212   6.223  0.0377  0.4104 -0.1504
11686SOL    HW135236   6.477   4.268   6.142  0.1310  0.9873  0.2701
11686SOL    HW235237   6.442   4.270   6.302 -0.4544 -0.1440  0.1696
11687SOL     OW35238   7.884   4.662   6.929  0.3431 -0.1549 -0.3507
11687SOL    HW135239   7.801   4.607   6.928 -0.8241  1.5136 -0.5949
11687SOL    HW235240   7.859   4.758   6.941  2.4093  0.1429  2.5065
11688SOL     OW35241   3.031   8.850   6.631  0.0424 -0.8910  0.0601
11688SOL    HW135242   3.000   8.924   6.690 -0.5628 -0.4509 -0.7767
11688SOL    HW235243   3.018   8.876   6.535  0.1887 -1.9208 -0.2580
11689SOL     OW35244   8.725   8.031   6.406  0.0036  0.2116  0.1234
11689SOL    HW135245   8.698   8.001   6.314  1.0846 -1.2748  0.2489
11689SOL    HW235246   8.784   7.961   6.447 -0.0844  1.0743  1.7725
11690SOL     OW35247   3.217   7.447   7.291  0.0616 -0.6712  0.4508
11690SOL    HW135248   3.160   7.413   7.217 -1.0137  2.0017 -0.0816
11690SOL    HW235249   3.303   7.481   7.255  0.3063 -1.0468  0.6814
11691SOL     OW35250   0.493   7.214   5.768  0.1680 -0.4099 -0.5124
11691SOL    HW135251   0.569   7.264   5.725 -0.3915  0.9377  0.0002
11691SOL    HW235252   0.420   7.201   5.701 -0.4915  1.2320 -0.1621
11692SOL     OW35253   0.285   7.662   2.136 -0.2201  1.0320 -0.0344
11692SOL    HW135254   0.344   7.712   2.200 -0.5302  0.6674  0.5535
11692SOL    HW235255   0.225   7.601   2.188 -1.1375  1.4231 -0.6195
11693SOL     OW35256   5.518   6.410   5.999 -0.0794 -0.0742  0.0503
11693SOL    HW135257   5.528   6.490   6.058  0.6863  0.5615 -0.9093
11693SOL    HW235258   5.495   6.330   6.055  1.4940  0.3142  1.3344
11694SOL     OW35259   8.075   6.336   0.116 -0.1375  0.7265 -0.0648
11694SOL    HW135260   8.151   6.397   0.094 -0.0492  0.2457 -1.1642
11694SOL    HW235261   8.071   6.262   0.048 -3.1536  2.1574 -1.6192
11695SOL     OW35262   8.781   7.957   4.907 -0.6659  0.4083 -0.0543
11695SOL    HW135263   8.701   7.916   4.864  0.2916  0.3056 -1.8501
11695SOL    HW235264   8.786   8.054   4.884 -0.1408  0.3566 -0.1798
11696SOL     OW35265   1.623   8.328   4.759  0.5878  0.1204  0.6017
11696SOL    HW135266   1.646   8.309   4.664 -1.0674  1.3141 -0.0870
11696SOL    HW235267   1.706   8.341   4.812  1.5274  0.8872 -0.9972
11697SOL     OW35268   0.017   1.575   2.699  0.2949  0.2613  0.4662
11697SOL    HW135269   0.106   1.548   2.736  0.9027  1.0920 -0.3142
11697SOL    HW235270   0.028   1.661   2.648 -0.8813  0.1576  0.0148
11698SOL     OW35271   1.833   5.906   2.964  0.0122  0.1595  1.0428
11698SOL    HW135272   1.905   5.885   3.029 -0.3704  0.5961  1.6156
11698SOL    HW235273   1.744   5.898   3.008 -0.3817 -1.4632  0.0525
11699SOL     OW35274   2.373   3.309   0.808  0.0503 -0.3703 -0.0769
11699SOL    HW135275   2.368   3.372   0.885  1.3901  0.2732 -0.4933
11699SOL    HW235276   2.386   3.216   0.842 -0.1468 -0.1968  0.4910
11700SOL     OW35277   2.280   6.540   4.970  0.6887  0.0699 -0.0709
11700SOL    HW135278   2.189   6.538   5.011  0.5028 -0.2826 -0.4826
11700SOL    HW235279   2.309   6.446   4.950  0.2926  0.2761 -1.7650
11701SOL     OW35280   5.747   8.530   8.517  0.0924 -0.0366  0.1192
11701SOL    HW135281   5.836   8.487   8.534 -0.8055 -1.5186  1.3244
11701SOL    HW235282   5.676   8.460   8.515 -1.0302  1.0813 -1.2086
11702SOL     OW35283   3.118   5.376   6.329  0.1633  0.4323  0.1318
11702SOL    HW135284   3.078   5.331   6.249  0.3257 -0.0768  0.3335
11702SOL    HW235285   3.136   5.308   6.400  0.5062  0.8009  0.4033
11703SOL     OW35286   6.091   5.895   6.031  0.3302 -0.1041 -0.3164
11703SOL    HW135287   6.049   5.939   5.951 -0.8143  0.9218  0.8024
11703SOL    HW235288   6.110   5.799   6.010 -1.4886 -0.2945 -1.2920
11704SOL     OW35289   7.947   5.894   2.149  0.0577  0.4115  0.0033
11704SOL    HW135290   7.900   5.982   2.143 -0.9199 -0.1032 -0.1468
11704SOL    HW235291   8.013   5.886   2.074  0.3079  1.0921  0.1414
11705SOL     OW35292   2.867   2.350   2.188 -0.0995  0.2993 -0.4130
11705SOL    HW135293   2.812   2.431   2.166 -0.6157 -0.1568 -0.8686
11705SOL    HW235294   2.963   2.369   2.169 -0.5564 -0.3900 -4.5060
11706SOL     OW35295   0.165   5.234   6.147 -0.1194  0.2596  0.1502
11706SOL    HW135296   0.095   5.165   6.128 -0.9465  1.2570 -0.5821
11706SOL    HW235297   0.207   5.264   6.061 -0.1731  1.0652  0.3952
11707SOL     OW35298   1.549   6.168   3.316 -0.4604  0.2641  0.2573
11707SOL    HW135299   1.645   6.142   3.321 -0.1546  1.3398  0.3110
11707SOL    HW235300   1.521   6.211   3.402 -0.7561  0.6998 -0.0498
11708SOL     OW35301   7.051   3.524   2.658  0.0413 -0.4373 -0.0372
11708SOL    HW135302   6.971   3.507   2.601  2.3381 -0.7514 -3.4447
11708SOL    HW235303   7.112   3.445   2.656  1.0393  0.2210  1.5317
11709SOL     OW35304   6.821   6.354   8.191  0.2704 -0.1197  0.2494
11709SOL    HW135305   6.873   6.275   8.224  1.3725  1.4881  2.5481
11709SOL    HW235306   6.784   6.404   8.268 -0.3277  1.7002 -1.1592
11710SOL     OW35307   3.043   8.231   4.707  0.8869 -0.7114  0.1445
11710SOL    HW135308   3.046   8.217   4.806  1.6040 -0.4034  0.1742
11710SOL    HW235309   2.949   8.221   4.675 -0.1737  3.3330  1.4627
11711SOL     OW35310   5.892   8.299   6.897 -0.2582 -0.3251  0.1533
11711SOL    HW135311   5.966   8.361   6.925 -0.8090  1.0451 -1.2584
11711SOL    HW235312   5.929   8.208   6.882  1.1128  0.2554 -0.2059
11712SOL     OW35313   7.084   0.304   4.092  0.1150 -0.1863 -0.4829
11712SOL    HW135314   7.106   0.343   4.182  1.3730 -0.7979 -0.4991
11712SOL    HW235315   7.017   0.231   4.103 -0.1813  0.1313 -0.1207
11713SOL     OW35316   4.521   0.019   7.021  0.3923 -0.1061  0.4475
11713SOL    HW135317   4.613  -0.011   6.993  0.1826 -0.8126  0.4926
11713SOL    HW235318   4.463  -0.061   7.033 -0.5580  0.3937 -0.7160
11714SOL     OW35319   7.654   0.315   3.507 -0.6932 -0.2930  0.0152
11714SOL    HW135320   7.606   0.231   3.535  0.8222 -1.5579 -1.0587
11714SOL    HW235321   7.691   0.304   3.415  1.3565  0.7585  0.6570
11715SOL     OW35322   3.527   6.574   4.629 -0.1197  0.2543  0.1124
11715SOL    HW135323   3.535   6.649   4.695 -1.7068 -0.0013  0.6433
11715SOL    HW235324   3.571   6.600   4.543 -1.8956  2.4075 -0.2176
11716SOL     OW35325   6.249   7.592   8.341  0.1328  0.5907  0.5399
11716SOL    HW135326   6.279   7.574   8.435 -1.0413  1.3536  1.0752
11716SOL    HW235327   6.176   7.660   8.342 -1.3584 -0.9111 -0.7385
11717SOL     OW35328   2.660   3.330   7.371 -0.3944 -0.0574 -0.0415
11717SOL    HW135329   2.572   3.285   7.386 -0.8176  0.7592  0.0155
11717SOL    HW235330   2.667   3.410   7.431  1.1163 -1.0677  1.2163
11718SOL     OW35331   1.457   2.603   8.522 -0.4699  0.1424 -0.1887
11718SOL    HW135332   1.382   2.655   8.561 -0.3656  0.5353 -0.5023
11718SOL    HW235333   1.499   2.655   8.448 -0.7253 -0.6305 -0.8882
11719SOL     OW35334   7.091   3.965   1.102  0.0820 -0.0094 -0.0102
11719SOL    HW135335   7.026   3.906   1.054  1.4782  0.0015 -2.0659
11719SOL    HW235336   7.157   3.909   1.153  0.1270 -0.1416 -0.2132
11720SOL     OW35337   4.682   6.219   4.295 -0.3902  0.0469 -0.3158
11720SOL    HW135338   4.584   6.205   4.306 -0.2664 -0.6435 -0.0278
11720SOL    HW235339   4.724   6.238   4.384 -0.4931  2.0488 -0.6360
11721SOL     OW35340   7.258   2.048   4.731  0.4112  0.4655  0.4604
11721SOL    HW135341   7.305   2.085   4.651  0.1121  3.8570  1.6539
11721SOL    HW235342   7.326   2.018   4.798  0.6645 -1.7216 -0.7014
11722SOL     OW35343   6.538   2.980   1.034 -1.0026 -0.0312 -0.4817
11722SOL    HW135344   6.529   2.938   0.944  1.3942 -0.5895 -0.5530
11722SOL    HW235345   6.479   3.060   1.040 -1.2801 -0.0236 -2.5156
11723SOL     OW35346   8.694   7.720   8.041  0.1451 -1.0736  0.0103
11723SOL    HW135347   8.784   7.757   8.016 -0.4946  0.1336 -0.5963
11723SOL    HW235348   8.693   7.621   8.028  0.5729 -0.8064 -2.5678
11724SOL     OW35349   6.251   7.681   5.226 -0.1816 -0.2830 -0.4153
11724SOL    HW135350   6.266   7.683   5.325 -0.2791 -0.1723 -0.4035
11724SOL    HW235351   6.301   7.604   5.186 -0.7368 -0.7696 -0.1832
11725SOL     OW35352   3.389   5.968   7.449 -0.5719  0.1443 -0.2687
11725SOL    HW135353   3.386   5.976   7.350  0.2738  0.7299 -0.2592
11725SOL    HW235354   3.474   5.922   7.476 -0.2845  0.9544  0.2333
11726SOL     OW35355   1.154   5.544   2.667  0.2386 -0.0404  0.1665
11726SOL    HW135356   1.121   5.483   2.740 -0.1830 -1.2145 -0.9753
11726SOL    HW235357   1.216   5.494   2.607 -0.6471  0.4346 -1.2003
11727SOL     OW35358   3.052   2.558   8.121  0.1482 -0.6078 -0.5157
11727SOL    HW135359   3.150   2.579   8.113  0.2499  0.8438  2.5763
11727SOL    HW235360   3.041   2.472   8.171 -0.1341 -0.5118 -0.4141
11728SOL     OW35361   4.876   3.211   1.102  0.1161 -0.0063  0.2443
11728SOL    HW135362   4.842   3.196   1.195 -0.9470  0.7888 -0.0096
11728SOL    HW235363   4.973   3.237   1.107 -0.0860  0.6331  1.1678
11729SOL     OW35364   8.084   7.769   7.646  0.3221 -0.0636 -0.4427
11729SOL    HW135365   8.080   7.849   7.587  1.2681  0.7059  0.5057
11729SOL    HW235366   8.165   7.715   7.624  2.4238  1.8085  2.0128
11730SOL     OW35367   7.130   2.848   3.853 -0.4121  0.3347 -0.1426
11730SOL    HW135368   7.195   2.791   3.802 -0.0340  0.6491 -0.0190
11730SOL    HW235369   7.093   2.919   3.793 -0.0901  0.6045 -0.0224
11731SOL     OW35370   5.084   2.191   4.753  0.1695  0.2798  0.1755
11731SOL    HW135371   5.025   2.158   4.827 -1.7454 -0.6189 -1.6427
11731SOL    HW235372   5.036   2.260   4.700  0.8053 -0.3404 -1.2631
11732SOL     OW35373   7.227   7.775   8.355 -0.1068 -0.1380 -0.2231
11732SOL    HW135374   7.166   7.772   8.276 -0.5773 -0.2560  0.1375
11732SOL    HW235375   7.198   7.847   8.417  0.1303 -0.1832 -0.0590
11733SOL     OW35376   1.181   0.206   1.811 -0.0420 -0.2929 -0.1123
11733SOL    HW135377   1.107   0.237   1.751  0.7410  1.2131 -0.3621
11733SOL    HW235378   1.157   0.225   1.906  0.5503  1.4781 -0.2796
11734SOL     OW35379   8.519   2.849   1.424 -0.7485 -0.4409 -0.4269
11734SOL    HW135380   8.419   2.850   1.421 -0.7412 -0.1568 -3.2111
11734SOL    HW235381   8.553   2.783   1.357  0.9410  0.0153 -0.0479
11735SOL     OW35382   6.800   3.685   4.324  0.8242  0.4614  0.6634
11735SOL    HW135383   6.828   3.610   4.384 -1.0159  0.0036  0.9933
11735SOL    HW235384   6.731   3.653   4.259  2.0144  1.2119 -1.0582
11736SOL     OW35385   7.314   1.515   2.515 -0.0421 -0.6565 -0.1291
11736SOL    HW135386   7.406   1.547   2.492  0.3459 -2.6450 -1.6803
11736SOL    HW235387   7.254   1.593   2.530  1.4663  0.7169 -0.9599
11737SOL     OW35388   4.651   0.379   2.646 -0.0156 -0.1201  0.0899
11737SOL    HW135389   4.726   0.352   2.707 -1.7044 -1.1043  1.7997
11737SOL    HW235390   4.665   0.338   2.556  2.1549  0.7890 -0.0610
11738SOL     OW35391   6.795   1.788   5.132  0.1267 -0.3885  0.0352
11738SOL    HW135392   6.809   1.788   5.033  1.4760 -0.3047  0.2115
11738SOL    HW235393   6.837   1.707   5.172 -0.0245 -0.1977  0.5886
11739SOL     OW35394   6.578   3.911   3.059  0.4853  0.1232 -0.5152
11739SOL    HW135395   6.591   3.823   3.013  1.2549 -0.0569  0.0253
11739SOL    HW235396   6.486   3.915   3.099  0.5619 -0.5778 -0.2536
11740SOL     OW35397   8.621   1.618   3.781  0.5070 -0.4297 -0.8434
11740SOL    HW135398   8.678   1.695   3.751  0.6757  0.7215  2.1163
11740SOL    HW235399   8.575   1.578   3.701  0.7089  2.4798 -2.5699
11741SOL     OW35400   2.930   0.886   4.724  0.4975  0.3242 -0.6012
11741SOL    HW135401   2.897   0.809   4.779  0.6812 -0.5121 -1.6289
11741SOL    HW235402   3.027   0.900   4.740  0.9274 -0.9368 -1.8135
11742SOL     OW35403   8.139   7.351   3.906 -0.3013 -0.3466 -0.0141
11742SOL    HW135404   8.051   7.397   3.889 -1.5352 -1.8020  1.9375
11742SOL    HW235405   8.204   7.416   3.944  0.0620  1.1272 -2.8936
11743SOL     OW35406   3.807   0.711   5.062  0.4977 -0.3684 -0.4346
11743SOL    HW135407   3.831   0.731   5.157 -1.7797 -0.6227  0.2676
11743SOL    HW235408   3.814   0.795   5.008 -0.1561  0.2778  0.4388
11744SOL     OW35409   2.721   6.417   3.880  0.0085 -0.5002 -0.6997
11744SOL    HW135410   2.801   6.442   3.826 -0.8886  3.2132 -0.5809
11744SOL    HW235411   2.639   6.456   3.838 -1.2653 -1.0201  1.1761
11745SOL     OW35412   4.073   6.028   8.085  0.4558  0.7414  0.4128
11745SOL    HW135413   4.114   6.110   8.126  3.0461 -0.3893  0.2669
11745SOL    HW235414   4.088   6.029   7.987  0.3347  0.1652  0.3854
11746SOL     OW35415   0.741   6.565   2.532 -0.1533 -0.1189  0.5345
11746SOL    HW135416   0.781   6.480   2.567 -1.4415 -0.7062  0.6267
11746SOL    HW235417   0.759   6.639   2.596  1.9565 -0.0311 -0.0682
11747SOL     OW35418   8.366   5.824   6.074 -0.1398  0.1544 -0.4971
11747SOL    HW135419   8.395   5.729   6.069  0.8297  0.4854 -1.5166
11747SOL    HW235420   8.408   5.867   6.154 -2.2801 -0.7864  1.2377
11748SOL     OW35421   1.817   5.224   2.908 -0.7111  0.0738 -0.6661
11748SOL    HW135422   1.802   5.296   2.975 -0.6074 -1.8140  1.5170
11748SOL    HW235423   1.745   5.227   2.839  0.2111  3.2348 -1.6693
11749SOL     OW35424   2.328   0.151   3.197  0.4932 -0.0578  0.7159
11749SOL    HW135425   2.295   0.182   3.286  2.5487  0.8463  1.2394
11749SOL    HW235426   2.421   0.116   3.207 -0.1597 -2.3961 -0.6694
11750SOL     OW35427   7.621   5.737   2.755  0.5986 -0.8340  0.5099
11750SOL    HW135428   7.575   5.706   2.838  0.3299 -0.8592  0.3532
11750SOL    HW235429   7.718   5.753   2.775  0.4400 -0.3899  0.9411
11751SOL     OW35430   2.932   6.458   3.685  0.4494  0.1346  0.2197
11751SOL    HW135431   3.030   6.438   3.681  0.9479  2.0649  1.5625
11751SOL    HW235432   2.918   6.556   3.691 -1.7023  0.0581 -1.9431
11752SOL     OW35433   8.481   2.403   5.349  0.0388  0.5220  0.0798
11752SOL    HW135434   8.489   2.414   5.448  2.7909 -1.2171  0.1464
11752SOL    HW235435   8.464   2.492   5.307  2.2965  1.8878  1.8498
11753SOL     OW35436   8.323   7.789   2.408 -0.2673 -0.1262 -0.8983
11753SOL    HW135437   8.410   7.834   2.386  0.3627 -2.0142 -2.6126
11753SOL    HW235438   8.291   7.820   2.498  1.6172  1.4169 -0.6887
11754SOL     OW35439   2.056   0.530   3.516  0.1848 -0.3273 -0.3778
11754SOL    HW135440   2.071   0.623   3.483  1.5125 -0.4867 -0.2987
11754SOL    HW235441   2.021   0.473   3.442  0.4927 -0.0378 -0.7479
11755SOL     OW35442   3.497   7.950   8.409  0.3416  0.0465 -0.0183
11755SOL    HW135443   3.483   8.045   8.437 -2.3027  0.1627 -1.3769
11755SOL    HW235444   3.428   7.892   8.453  1.6902 -1.2111  0.5018
11756SOL     OW35445   4.751   6.384   1.166  0.0953  0.2911 -0.2524
11756SOL    HW135446   4.698   6.400   1.250 -0.2531 -0.3087 -0.3573
11756SOL    HW235447   4.690   6.382   1.087  0.1408 -1.3152 -0.2752
11757SOL     OW35448   6.447   2.255   8.684 -0.2367 -0.0534 -0.0100
11757SOL    HW135449   6.470   2.169   8.729 -1.9139 -0.7824 -0.4708
11757SOL    HW235450   6.499   2.330   8.725  0.4038 -1.1172  1.1574
11758SOL     OW35451   4.602   3.105   2.707 -0.2983  0.4971  0.4125
11758SOL    HW135452   4.654   3.036   2.758  2.8323  1.3436 -1.3546
11758SOL    HW235453   4.624   3.196   2.743 -1.4715  0.8248  0.3244
11759SOL     OW35454   2.219   6.312   3.553 -0.1731 -0.3635  0.0278
11759SOL    HW135455   2.300   6.339   3.500 -0.8385  0.8438 -0.4034
11759SOL    HW235456   2.144   6.376   3.534 -1.4764 -1.8897 -0.1693
11760SOL     OW35457   7.911   5.047   8.495 -0.2708 -0.0605 -0.1529
11760SOL    HW135458   7.893   5.061   8.398 -1.9582 -2.3191 -0.2598
11760SOL    HW235459   7.877   5.125   8.548 -0.3524  0.6818 -1.2757
11761SOL     OW35460   0.808   0.584   3.659  0.6083  0.2632 -0.5151
11761SOL    HW135461   0.900   0.549   3.677  0.6616  0.1323 -1.0148
11761SOL    HW235462   0.751   0.510   3.621  0.0864  0.1530  0.4624
11762SOL     OW35463   3.157   2.775   4.370 -0.1364 -1.2660  0.3327
11762SOL    HW135464   3.210   2.703   4.324 -0.2871 -1.7679  0.9323
11762SOL    HW235465   3.217   2.853   4.389  0.3059 -1.6805  0.6739
11763SOL     OW35466   4.765   0.120   1.571  0.9111  0.2441 -0.3561
11763SOL    HW135467   4.765   0.204   1.516  0.2213  0.2552 -0.3396
11763SOL    HW235468   4.859   0.085   1.578  1.0532  0.4294 -1.2456
11764SOL     OW35469   8.777   3.798   2.751 -0.4342  0.8593  0.0293
11764SOL    HW135470   8.791   3.895   2.767 -0.3035  0.8793 -0.2031
11764SOL    HW235471   8.842   3.765   2.683 -0.1183  0.4881  0.5094
11765SOL     OW35472   0.742   1.558   8.169  0.2624 -0.5843  0.1673
11765SOL    HW135473   0.719   1.635   8.229  0.8672  0.7470 -1.2500
11765SOL    HW235474   0.688   1.564   8.085 -0.1698 -2.1134  0.3128
11766SOL     OW35475   0.592   2.057   7.649 -0.0265 -0.0814 -0.5279
11766SOL    HW135476   0.504   2.039   7.605 -0.4635  2.7218 -0.9693
11766SOL    HW235477   0.663   2.067   7.579  0.4180 -1.0464 -0.2375
11767SOL     OW35478   3.948   3.046   3.537 -0.3580  0.6343 -0.2525
11767SOL    HW135479   3.899   3.006   3.460 -0.9559  0.6857  0.0933
11767SOL    HW235480   3.984   3.136   3.512  0.1696  0.2994 -0.7283
11768SOL     OW35481   1.305   1.555   7.840  0.0789 -0.2769  0.0502
11768SOL    HW135482   1.271   1.463   7.864 -0.5886  0.4718  2.1765
11768SOL    HW235483   1.227   1.617   7.829  0.5009 -0.0268 -1.8637
11769SOL     OW35484   2.988   8.498   5.546 -0.3954 -0.0074 -0.3834
11769SOL    HW135485   3.062   8.432   5.563 -0.9029  0.1004  2.6898
11769SOL    HW235486   3.027   8.590   5.538  0.1739 -0.3877 -3.4200
11770SOL     OW35487   7.546   0.422   8.300  0.3087 -0.4068 -0.4233
11770SOL    HW135488   7.599   0.455   8.221  0.0340 -0.7588 -0.7583
11770SOL    HW235489   7.588   0.339   8.336  0.2862 -0.3911 -0.3604
11771SOL     OW35490   0.904   7.617   3.880 -0.5118  0.0867  0.0802
11771SOL    HW135491   1.004   7.616   3.878 -0.5125  0.0586 -1.4770
11771SOL    HW235492   0.873   7.662   3.963  0.7749 -0.8688  1.1277
11772SOL     OW35493   2.983   8.240   4.968  0.2296  0.2493 -0.0822
11772SOL    HW135494   2.902   8.298   4.957  0.7487  1.1228  0.5826
11772SOL    HW235495   3.009   8.236   5.064  1.1249  0.1853 -0.3148
11773SOL     OW35496   5.959   0.539   2.551 -0.5542  0.1672 -0.0682
11773SOL    HW135497   6.006   0.595   2.483 -1.7853 -0.9661 -1.9641
11773SOL    HW235498   5.960   0.443   2.521  1.2708 -0.8835  2.9268
11774SOL     OW35499   4.721   2.335   4.619 -0.1185  0.7812  0.0284
11774SOL    HW135500   4.691   2.247   4.655 -0.9549  1.2881  0.6266
11774SOL    HW235501   4.652   2.405   4.641  1.6424  2.0760  1.6951
11775SOL     OW35502   7.817   6.328   0.450 -0.0636 -0.1677 -0.2045
11775SOL    HW135503   7.862   6.418   0.449 -0.8653  0.2411 -0.2688
11775SOL    HW235504   7.841   6.279   0.366 -0.0892  0.2264 -0.4499
11776SOL     OW35505   2.801   5.634   5.831 -0.6634  0.0871  0.2594
11776SOL    HW135506   2.770   5.561   5.770  0.4305  1.3979 -1.9999
11776SOL    HW235507   2.836   5.594   5.915 -0.2183 -1.9887 -0.8376
11777SOL     OW35508   6.489   0.752   0.023 -0.2837  0.2905  0.3728
11777SOL    HW135509   6.533   0.842   0.014 -0.6286  0.3583 -0.8766
11777SOL    HW235510   6.551   0.681  -0.012 -0.6074  0.2279 -0.0841
11778SOL     OW35511   2.034   8.467   7.805  0.2799  0.3746  0.2395
11778SOL    HW135512   2.094   8.455   7.884  1.0304  0.6916 -0.2708
11778SOL    HW235513   2.087   8.498   7.727 -0.6864  1.5488  0.0071
11779SOL     OW35514   5.797   6.942   5.047  0.8511  0.1854  0.2004
11779SOL    HW135515   5.822   6.966   4.954  1.3776 -2.0433 -0.2996
11779SOL    HW235516   5.745   7.017   5.089  0.0259  0.9768 -2.0918
11780SOL     OW35517   0.806   7.789   0.788 -0.1980  0.0663  0.5749
11780SOL    HW135518   0.796   7.888   0.794 -0.5766 -0.0212  1.4974
11780SOL    HW235519   0.717   7.745   0.799 -0.1458 -0.3581 -0.5822
11781SOL     OW35520   0.467   0.337   0.235  0.2995 -0.0630 -0.0333
11781SOL    HW135521   0.448   0.368   0.142 -3.0952 -1.4357  0.0439
11781SOL    HW235522   0.460   0.414   0.298 -3.5159  0.0043 -0.3333
11782SOL     OW35523   7.975   8.122   1.202  0.1180  0.3927  0.1475
11782SOL    HW135524   7.898   8.059   1.209  0.8111 -0.4759  0.1554
11782SOL    HW235525   7.997   8.138   1.106  0.3176  0.1559  0.1544
11783SOL     OW35526   7.147   1.586   6.474  0.2347 -0.3118 -0.2334
11783SOL    HW135527   7.190   1.616   6.389  1.7290 -0.6010  0.3934
11783SOL    HW235528   7.154   1.658   6.543 -1.2381  0.0394 -0.4043
11784SOL     OW35529   7.288   8.546   3.229  0.0991  0.5235 -0.0881
11784SOL    HW135530   7.239   8.463   3.255 -0.4748  0.8305 -0.1674
11784SOL    HW235531   7.224   8.623   3.224  0.7803  1.1778  0.9253
11785SOL     OW35532   3.057   0.987   1.946 -0.0399 -0.0451 -0.5741
11785SOL    HW135533   3.108   0.956   1.865 -1.1786  0.9166 -1.7100
11785SOL    HW235534   2.959   0.974   1.930 -0.2718  0.0148  0.7380
11786SOL     OW35535   7.560   8.424   8.015 -0.1286  0.2086 -0.0346
11786SOL    HW135536   7.511   8.451   7.932  0.9493  1.4665 -0.2907
11786SOL    HW235537   7.495   8.420   8.092 -0.7388  1.4469 -0.4476
11787SOL     OW35538   6.267   6.209   0.720  0.2351 -0.3093  0.4443
11787SOL    HW135539   6.231   6.124   0.680  0.1223  0.1017 -0.3418
11787SOL    HW235540   6.194   6.276   0.727  0.1456 -0.5299  1.8062
11788SOL     OW35541   8.781   3.053   0.255 -0.1958  0.2394  0.5909
11788SOL    HW135542   8.847   2.978   0.255 -1.9329 -1.4041  2.2050
11788SOL    HW235543   8.707   3.033   0.190  0.5445  1.8258 -0.8410
11789SOL     OW35544   7.773   3.874   4.727 -0.5585 -0.0425 -0.4389
11789SOL    HW135545   7.765   3.790   4.782 -1.3602  0.4980  0.2884
11789SOL    HW235546   7.699   3.877   4.660  0.8173 -1.0520 -2.1087
11790SOL     OW35547   5.590   4.616   5.060 -0.0556 -0.0197  0.2771
11790SOL    HW135548   5.652   4.691   5.083  0.2217  0.0140 -0.5461
11790SOL    HW235549   5.509   4.652   5.014  0.4460 -0.2797 -0.8507
11791SOL     OW35550   3.750   4.448   1.062  1.1797  0.2222 -0.3942
11791SOL    HW135551   3.841   4.409   1.049  2.3607  2.4319  0.6438
11791SOL    HW235552   3.757   4.530   1.120 -1.5483  0.1833  0.1146
11792SOL     OW35553   4.440   3.522   8.216  0.6124  0.1203 -0.2163
11792SOL    HW135554   4.390   3.437   8.202 -0.9831  1.4976 -4.0415
11792SOL    HW235555   4.534   3.502   8.243  0.0307 -2.7721 -0.0846
11793SOL     OW35556   4.936   8.593   5.882  0.5406  0.0538  0.0432
11793SOL    HW135557   4.904   8.588   5.788  1.4234  0.0335 -0.2626
11793SOL    HW235558   4.895   8.519   5.935 -1.3299  1.0860  0.1098
11794SOL     OW35559   6.238   6.764   6.545  0.1427  0.1602 -0.3042
11794SOL    HW135560   6.321   6.815   6.520 -0.4851  1.1311 -0.4931
11794SOL    HW235561   6.208   6.794   6.636 -0.1358 -0.0139 -0.3411
11795SOL     OW35562   5.335   5.405   8.045  0.0788  0.1799  0.6788
11795SOL    HW135563   5.359   5.310   8.064  0.9227  0.4124  0.7902
11795SOL    HW235564   5.396   5.466   8.095  1.0189  0.7901 -1.1152
11796SOL     OW35565   5.843   5.747   4.576 -0.1241  0.0206  0.2177
11796SOL    HW135566   5.891   5.749   4.488  2.0839 -1.2745  1.2986
11796SOL    HW235567   5.804   5.837   4.595  0.9149  0.8234 -1.2572
11797SOL     OW35568   3.513   7.154   6.230  0.2005  0.2044  0.0090
11797SOL    HW135569   3.527   7.056   6.218 -0.7906  0.0377  0.0872
11797SOL    HW235570   3.600   7.198   6.252  0.5793 -0.7260  0.4232
11798SOL     OW35571   5.868   8.318   5.031  0.0511  0.5669  0.2877
11798SOL    HW135572   5.885   8.346   5.125 -0.9884 -0.0727  0.6822
11798SOL    HW235573   5.782   8.267   5.026 -0.7296  1.9100 -1.2587
11799SOL     OW35574   1.994   4.204   8.155 -0.1546 -0.0255 -0.3438
11799SOL    HW135575   1.901   4.191   8.189  0.3931 -1.3341  0.7894
11799SOL    HW235576   2.055   4.224   8.232  0.3979  1.6275 -1.1627
11800SOL     OW35577   6.019   4.308   5.529 -0.1421 -0.1483 -0.0462
11800SOL    HW135578   5.968   4.377   5.579  1.0459  0.5143  0.2938
11800SOL    HW235579   6.052   4.238   5.593  1.2185  0.5987  0.0987
11801SOL     OW35580   2.141   1.575   5.201 -0.6315 -0.0960 -0.3004
11801SOL    HW135581   2.108   1.625   5.280  0.1787 -1.2129  0.7967
11801SOL    HW235582   2.107   1.481   5.205 -0.8905 -0.0667 -1.4980
11802SOL     OW35583   5.473   4.989   5.517 -0.2407  0.4200 -0.1229
11802SOL    HW135584   5.507   4.990   5.423  0.1260  0.9208  0.0135
11802SOL    HW235585   5.533   5.045   5.575 -0.4362  0.0790  0.4181
11803SOL     OW35586   4.860   8.124   4.443 -0.2399  0.6720  0.0761
11803SOL    HW135587   4.825   8.107   4.535  1.4307  0.8675  0.7953
11803SOL    HW235588   4.841   8.219   4.417  0.7794  1.1444  0.9682
11804SOL     OW35589   8.093   6.697   0.953  0.7983  0.0025  0.0377
11804SOL    HW135590   8.010   6.641   0.939  0.8182 -0.3277  1.1095
11804SOL    HW235591   8.173   6.646   0.921  0.8817 -0.8656  1.5097
11805SOL     OW35592   1.769   5.456   0.943  0.3981 -0.4485 -0.1457
11805SOL    HW135593   1.810   5.523   0.882 -1.3001  1.1693  0.3673
11805SOL    HW235594   1.837   5.424   1.009  0.8869  2.2333  0.7868
11806SOL     OW35595   4.355   8.216   0.736 -0.7631  0.7367  0.6344
11806SOL    HW135596   4.334   8.160   0.816  0.3714 -0.4721  0.1255
11806SOL    HW235597   4.346   8.160   0.653  4.3109 -0.0871  0.3210
11807SOL     OW35598   6.834   6.840   1.371  0.1487  0.1060 -0.1646
11807SOL    HW135599   6.750   6.785   1.373  0.2270 -0.1564 -2.2167
11807SOL    HW235600   6.906   6.789   1.324  0.7118  1.3143 -0.6463
11808SOL     OW35601   1.767   4.676   7.350  0.2120 -0.5318 -0.0972
11808SOL    HW135602   1.840   4.699   7.286  0.2203  0.2420  0.1885
11808SOL    HW235603   1.806   4.646   7.437  0.1917 -0.0438  0.0814
11809SOL     OW35604   2.450   7.124   1.862  0.4021 -0.0485 -0.3496
11809SOL    HW135605   2.507   7.060   1.811  0.0549 -0.6033 -0.0544
11809SOL    HW235606   2.361   7.083   1.879  0.9388 -0.4306  1.8365
11810SOL     OW35607   6.497   4.508   4.529  0.2287  0.9667 -0.0146
11810SOL    HW135608   6.425   4.577   4.515  1.2236  1.7281 -1.6729
11810SOL    HW235609   6.465   4.420   4.495 -0.9336  0.6021  1.8334
11811SOL     OW35610   4.503   3.958   4.147 -0.3045  0.3325  0.3021
11811SOL    HW135611   4.557   4.038   4.121 -1.1247  0.5680 -0.7659
11811SOL    HW235612   4.539   3.877   4.101  0.0698  0.2190  0.7935
11812SOL     OW35613   5.243   1.887   6.179  0.0564  0.1341 -0.8789
11812SOL    HW135614   5.160   1.862   6.130  0.3106 -0.2173 -1.1341
11812SOL    HW235615   5.308   1.928   6.115  1.0937 -1.9376 -1.2343
11813SOL     OW35616   4.862   2.252   2.178 -0.0222  0.5221 -0.3906
11813SOL    HW135617   4.854   2.157   2.147  1.0493  0.2393  0.1522
11813SOL    HW235618   4.786   2.273   2.240 -0.4846  0.1518 -0.8228
11814SOL     OW35619   3.111   6.450   2.259  0.5314 -0.6443  0.0573
11814SOL    HW135620   3.148   6.395   2.184  1.2048  0.0679 -0.1477
11814SOL    HW235621   3.021   6.415   2.285  0.3673 -1.0080 -0.9574
11815SOL     OW35622   8.036   1.062   8.321 -0.0135 -0.8426 -0.3401
11815SOL    HW135623   8.097   1.091   8.394  0.2690  1.0904 -1.2842
11815SOL    HW235624   8.072   1.092   8.233 -2.7431  1.2792 -0.8765
11816SOL     OW35625   5.113   0.374   0.323  0.3221  0.3653 -0.3545
11816SOL    HW135626   5.064   0.439   0.264  0.8772  1.8800  0.7680
11816SOL    HW235627   5.048   0.336   0.389  0.2463  0.8431 -0.1448
11817SOL     OW35628   1.347   1.499   5.058  0.1353 -0.1568  0.0827
11817SOL    HW135629   1.297   1.551   4.989 -0.3929 -1.1900 -0.3357
11817SOL    HW235630   1.442   1.529   5.061 -0.0382  0.4545 -0.5185
11818SOL     OW35631   4.178   2.776   1.306 -0.2707  0.4272  0.4331
11818SOL    HW135632   4.213   2.864   1.338 -0.6293  0.4318  0.8134
11818SOL    HW235633   4.142   2.787   1.213 -0.2548  0.6663  0.4529
11819SOL     OW35634   3.825   2.879   6.237 -0.3235 -0.5802  0.2503
11819SOL    HW135635   3.924   2.866   6.233 -0.2513 -0.9113  2.0666
11819SOL    HW235636   3.801   2.969   6.200  0.6662 -0.4574 -0.1108
11820SOL     OW35637   0.623   4.203   0.648  0.0453  0.5015  0.0359
11820SOL    HW135638   0.702   4.246   0.605  0.0566  0.1414 -0.3102
11820SOL    HW235639   0.601   4.251   0.733  1.1632  0.0934  0.5816
11821SOL     OW35640   0.157   0.104   2.313  0.1681 -0.6402  0.4887
11821SOL    HW135641   0.155   0.033   2.243  0.5653 -1.3448  1.1788
11821SOL    HW235642   0.065   0.140   2.327 -0.3849 -2.2817  1.3849
11822SOL     OW35643   8.324   7.594   3.857 -0.3034 -0.6644 -0.1724
11822SOL    HW135644   8.335   7.547   3.770  1.4322  0.6470 -0.7209
11822SOL    HW235645   8.251   7.662   3.849 -0.6471 -1.0514 -0.3648
11823SOL     OW35646   7.223   3.677   6.194  0.1668 -0.2790  0.0251
11823SOL    HW135647   7.197   3.767   6.162  0.7803  0.0360  0.3945
11823SOL    HW235648   7.261   3.684   6.287  1.2525 -0.7514 -0.3634
11824SOL     OW35649   3.259   5.673   1.837 -0.3228  0.0850 -0.0324
11824SOL    HW135650   3.255   5.573   1.829 -1.0803  0.0210  0.9471
11824SOL    HW235651   3.257   5.714   1.746 -0.6331 -0.7741 -0.4228
11825SOL     OW35652   8.647   1.915   0.275 -0.3172  0.6459 -0.2906
11825SOL    HW135653   8.648   1.926   0.374 -1.3372 -1.0352 -0.0570
11825SOL    HW235654   8.558   1.943   0.239 -0.9913 -1.3697 -0.3320
11826SOL     OW35655   4.287   0.360   8.363 -0.1090  0.0311 -0.0551
11826SOL    HW135656   4.323   0.294   8.298 -1.3074 -1.6048  0.8524
11826SOL    HW235657   4.343   0.443   8.362  0.8195 -0.5687 -1.9822
11827SOL     OW35658   5.326   6.297   0.826 -0.5743 -0.2589  0.0699
11827SOL    HW135659   5.264   6.367   0.792 -0.8238 -0.5856 -0.1482
11827SOL    HW235660   5.408   6.294   0.769 -1.3111 -1.3065 -0.9566
11828SOL     OW35661   8.181   5.190   8.476 -0.0617  0.2960  0.0983
11828SOL    HW135662   8.103   5.129   8.488  0.6545 -0.4166  1.3781
11828SOL    HW235663   8.263   5.136   8.458  0.0887  1.0576 -1.7536
11829SOL     OW35664   8.697   0.351   2.820 -0.0342 -0.2657  0.6881
11829SOL    HW135665   8.654   0.289   2.886 -0.1265 -0.7879  0.1490
11829SOL    HW235666   8.721   0.300   2.738 -2.3448  0.8736 -0.7953
11830SOL     OW35667   6.579   6.719   5.406 -0.6452 -0.1652  0.4608
11830SOL    HW135668   6.568   6.625   5.439  0.3032  0.4393  2.7487
11830SOL    HW235669   6.540   6.727   5.315  0.0938 -3.0030 -0.2188
11831SOL     OW35670   5.307   7.505   3.598 -0.0098  0.0182  0.0905
11831SOL    HW135671   5.388   7.543   3.554 -0.8454  0.3386 -1.2253
11831SOL    HW235672   5.280   7.563   3.674 -0.0094  0.8678 -0.5463
11832SOL     OW35673   5.002   7.017   6.251  0.5781 -0.2071 -0.3436
11832SOL    HW135674   4.947   7.086   6.204  1.1849 -0.8851 -2.1310
11832SOL    HW235675   5.029   6.946   6.186  0.7018 -1.6764  1.2616
11833SOL     OW35676   7.899   6.156   0.250 -0.2622 -0.0030  0.8176
11833SOL    HW135677   7.943   6.089   0.311 -1.5205 -0.7113  1.0031
11833SOL    HW235678   7.966   6.221   0.217  1.0904 -1.5558  0.3771
11834SOL     OW35679   5.584   5.421   8.250 -0.2439  0.0238 -0.1195
11834SOL    HW135680   5.682   5.413   8.267 -0.0692 -1.3487 -1.6283
11834SOL    HW235681   5.536   5.346   8.294 -0.6065  0.5320  0.3719
11835SOL     OW35682   5.697   8.245   2.903 -0.3477  0.2115  0.1677
11835SOL    HW135683   5.603   8.224   2.874 -0.1560 -1.6065  0.7350
11835SOL    HW235684   5.741   8.301   2.834 -2.1053  1.8442  0.2732
11836SOL     OW35685   3.555   8.033   8.029 -0.3647 -0.8571 -0.4137
11836SOL    HW135686   3.578   8.114   7.976  2.0052 -2.1120 -1.4660
11836SOL    HW235687   3.472   7.991   7.992 -0.6581  0.1415 -0.9243
11837SOL     OW35688   5.091   7.928   5.645 -0.0910  0.4585  0.0813
11837SOL    HW135689   5.182   7.969   5.658  0.0783 -0.2824  1.3723
11837SOL    HW235690   5.021   7.998   5.660  0.2474  0.9122 -0.4191
11838SOL     OW35691   1.229   3.637   1.783 -0.0866 -0.1802  0.6370
11838SOL    HW135692   1.163   3.628   1.708  0.9332  0.8219 -0.4169
11838SOL    HW235693   1.295   3.562   1.779  0.2812  0.1588  0.1874
11839SOL     OW35694   5.675   7.111   0.695 -0.1613 -0.1252  0.0502
11839SOL    HW135695   5.638   7.201   0.672  2.0504  0.5253 -1.3324
11839SOL    HW235696   5.626   7.040   0.646 -0.5781  0.5380 -0.5016
11840SOL     OW35697   7.058   5.054   0.755  0.1503 -0.2312  0.2509
11840SOL    HW135698   7.145   5.006   0.743  1.3540  2.1089 -0.9998
11840SOL    HW235699   6.996   4.996   0.809  1.7401 -2.7888 -0.4639
11841SOL     OW35700   0.451   3.388   2.565 -0.0235  0.2122  0.2682
11841SOL    HW135701   0.451   3.480   2.603 -2.2121  0.0682  0.7780
11841SOL    HW235702   0.428   3.392   2.468  2.0376  0.3148 -0.2613
11842SOL     OW35703   3.154   5.464   0.441 -0.0271 -0.3272 -0.3613
11842SOL    HW135704   3.241   5.454   0.392  0.0908  1.0037 -0.4563
11842SOL    HW235705   3.079   5.466   0.375  0.1735  2.0123 -0.6077
11843SOL     OW35706   4.500   8.648   8.051  0.0128 -0.2903  0.6493
11843SOL    HW135707   4.546   8.565   8.020  0.3991 -0.2961  1.2263
11843SOL    HW235708   4.411   8.624   8.091  0.0565 -0.4133  0.6729
11844SOL     OW35709   1.149   6.887   2.657 -0.1992 -0.3496  0.2204
11844SOL    HW135710   1.197   6.803   2.630  0.7146  0.1005  0.3843
11844SOL    HW235711   1.205   6.966   2.631  0.1797  0.1359  2.3685
11845SOL     OW35712   0.536   8.253   2.626 -0.2826  0.1698  0.0375
11845SOL    HW135713   0.542   8.347   2.661 -0.4445  0.4058 -0.5504
11845SOL    HW235714   0.441   8.222   2.630 -0.1854 -0.0731  0.4898
11846SOL     OW35715   1.026   5.219   7.285  0.0723 -0.4326  0.4922
11846SOL    HW135716   1.064   5.207   7.193  0.7363 -0.0276  0.7099
11846SOL    HW235717   1.029   5.316   7.310 -2.2185 -0.1824  0.0419
11847SOL     OW35718   2.299   0.029   2.723  0.2413  0.1579  0.3524
11847SOL    HW135719   2.272   0.123   2.703  2.1146  1.0532  1.6992
11847SOL    HW235720   2.236  -0.010   2.790  0.7868  1.3386  1.6003
11848SOL     OW35721   4.034   4.723   3.027 -0.6610 -0.1365 -0.5573
11848SOL    HW135722   4.064   4.753   2.936  0.8839 -0.1644 -0.0865
11848SOL    HW235723   4.103   4.749   3.095 -0.4079 -2.6279  0.2222
11849SOL     OW35724   3.759   6.000   1.766  0.1315 -0.3025 -0.1224
11849SOL    HW135725   3.683   5.949   1.726 -0.9314  1.8160 -0.9908
11849SOL    HW235726   3.836   6.001   1.702 -0.5492  0.7398 -0.9638
11850SOL     OW35727   4.332   7.819   1.631 -0.8246 -0.4987 -1.0249
11850SOL    HW135728   4.342   7.842   1.535  1.7555 -0.3241 -0.7965
11850SOL    HW235729   4.389   7.880   1.686 -1.2937 -1.3812  0.4949
11851SOL     OW35730   8.553   7.216   2.225 -0.0586  0.0016 -0.0105
11851SOL    HW135731   8.632   7.219   2.286 -1.2694 -0.4534  1.6359
11851SOL    HW235732   8.544   7.123   2.187  0.1763  0.0567 -0.2096
11852SOL     OW35733   2.006   6.761   3.087  0.6647 -0.3658  0.0846
11852SOL    HW135734   2.086   6.802   3.044  0.6986 -0.3465  0.1653
11852SOL    HW235735   1.955   6.709   3.019  1.0425 -0.8309  0.1498
11853SOL     OW35736   2.119   4.938   3.133 -0.5729  0.5803 -0.2041
11853SOL    HW135737   2.214   4.919   3.107 -0.2809  0.7086  0.7401
11853SOL    HW235738   2.099   5.034   3.117 -0.3497  0.6922  0.1923
11854SOL     OW35739   3.236   1.314   7.697  0.4185  0.0341 -0.4685
11854SOL    HW135740   3.160   1.368   7.660 -0.9712 -0.0117  2.1440
11854SOL    HW235741   3.281   1.366   7.770  0.9853 -1.1422  0.0348
11855SOL     OW35742   0.226   7.902   3.139 -0.5067 -0.4797  0.0504
11855SOL    HW135743   0.144   7.959   3.143  0.4393  0.8640  1.9858
11855SOL    HW235744   0.284   7.921   3.219  0.4620 -3.3041  0.1342
11856SOL     OW35745   7.767   7.831   7.011 -0.5258  0.4431  0.0150
11856SOL    HW135746   7.738   7.879   6.929  0.2405 -1.4622 -1.4452
11856SOL    HW235747   7.866   7.817   7.009 -0.6180 -0.4158  0.8201
11857SOL     OW35748   0.488   7.942   0.275 -0.0036 -0.6359  0.1136
11857SOL    HW135749   0.528   7.851   0.282 -1.8696 -1.3770  1.9328
11857SOL    HW235750   0.432   7.948   0.191  0.7369 -0.8759 -0.4058
11858SOL     OW35751   5.400   0.068   6.625  0.0199 -0.2427  0.4034
11858SOL    HW135752   5.489   0.090   6.665  0.9788 -1.6198 -0.9003
11858SOL    HW235753   5.376   0.137   6.557  0.4555 -0.2779  0.2123
11859SOL     OW35754   1.882   3.983   7.231 -0.0036 -0.7438  0.2725
11859SOL    HW135755   1.908   3.996   7.327 -0.1489 -0.1516  0.2355
11859SOL    HW235756   1.953   3.932   7.183  0.5802 -0.0944  0.4368
11860SOL     OW35757   6.086   2.451   5.418  0.0319  0.0120 -0.1296
11860SOL    HW135758   6.073   2.364   5.465  0.4538  0.6710  1.2566
11860SOL    HW235759   6.184   2.469   5.407 -0.0528  0.3097 -0.4277
11861SOL     OW35760   2.635   0.229   3.668  0.8000  0.0019 -0.1829
11861SOL    HW135761   2.586   0.284   3.600 -0.5305  0.3858  1.0306
11861SOL    HW235762   2.630   0.132   3.642  1.3071  0.2309 -1.2097
11862SOL     OW35763   5.893   0.885   1.086  0.5351 -0.5361 -0.2259
11862SOL    HW135764   5.970   0.894   1.149 -2.0145 -1.1725  3.3305
11862SOL    HW235765   5.864   0.976   1.056  0.0771  0.0793  1.9381
11863SOL     OW35766   3.429   0.864   3.091 -0.5024  0.1795  0.4989
11863SOL    HW135767   3.527   0.841   3.088 -0.9286 -1.7664  0.3921
11863SOL    HW235768   3.396   0.883   2.999 -0.5219 -0.4856  0.3702
11864SOL     OW35769   3.701   0.002   7.999  0.6156  0.4344  0.1927
11864SOL    HW135770   3.747  -0.064   8.060 -1.2721  0.7927  2.1338
11864SOL    HW235771   3.605   0.010   8.026 -0.5934 -0.0411 -3.4892
11865SOL     OW35772   5.571   6.314   4.508 -0.4881 -0.0165 -0.3179
11865SOL    HW135773   5.526   6.242   4.561 -0.2343  0.0883  0.0479
11865SOL    HW235774   5.507   6.350   4.440 -0.8208 -0.1589 -0.0879
11866SOL     OW35775   7.306   8.256   0.880  0.1768  0.2437  0.1199
11866SOL    HW135776   7.388   8.307   0.858  0.4473  0.1441  0.8598
11866SOL    HW235777   7.329   8.180   0.941 -0.5555  0.6582  0.9461
11867SOL     OW35778   5.209   3.254   4.557 -0.0500  0.1447 -0.0818
11867SOL    HW135779   5.115   3.285   4.547  0.6656  2.3433 -0.6081
11867SOL    HW235780   5.271   3.328   4.531  1.8561 -0.6966  1.8257
11868SOL     OW35781   5.331   0.909   6.253 -0.1093 -0.0812  0.5751
11868SOL    HW135782   5.406   0.844   6.254  0.3263  0.1067 -3.3553
11868SOL    HW235783   5.244   0.861   6.262  0.3229 -0.7129  1.4911
11869SOL     OW35784   3.205   3.220   0.776 -0.9252  0.2693  0.2767
11869SOL    HW135785   3.167   3.301   0.821 -0.7301  1.3683 -1.4272
11869SOL    HW235786   3.267   3.249   0.703  1.2939 -1.4605  1.3576
11870SOL     OW35787   4.495   8.845   3.844  0.1844  0.0410 -0.0076
11870SOL    HW135788   4.585   8.805   3.824  1.9472  2.5648  2.1264
11870SOL    HW235789   4.430   8.816   3.775  2.8963 -1.0112 -2.3421
11871SOL     OW35790   8.305   6.623   1.417  1.0527 -0.3671  0.1913
11871SOL    HW135791   8.256   6.571   1.487 -0.6953 -1.6116 -1.8384
11871SOL    HW235792   8.364   6.562   1.365  2.8781  0.6723  0.9584
11872SOL     OW35793   5.521   0.760   3.150  0.2189  0.0553 -0.1368
11872SOL    HW135794   5.494   0.841   3.099 -1.1061 -0.0856  0.2949
11872SOL    HW235795   5.497   0.772   3.247 -0.9826 -1.2392 -0.2391
11873SOL     OW35796   4.444   5.783   2.032  0.1340 -1.0273  0.3825
11873SOL    HW135797   4.539   5.809   2.012  0.0646 -0.1244  1.1719
11873SOL    HW235798   4.444   5.701   2.089  0.4313 -1.1655  0.1883
11874SOL     OW35799   6.860   8.024   2.729  0.0726  0.3698  0.9468
11874SOL    HW135800   6.814   7.936   2.730  1.1409 -0.2288  0.1953
11874SOL    HW235801   6.836   8.073   2.645  1.1601 -0.1786  0.2814
11875SOL     OW35802   7.800   8.150   0.909  0.4718 -0.1822  0.3047
11875SOL    HW135803   7.750   8.120   0.991  1.2141 -1.3519  0.3512
11875SOL    HW235804   7.837   8.070   0.862  0.5583  0.5269 -0.8579
11876SOL     OW35805   8.110   2.465   0.865 -0.1244 -0.3047  0.2976
11876SOL    HW135806   8.033   2.463   0.802 -0.2811  1.5461  0.3763
11876SOL    HW235807   8.177   2.532   0.833  0.4474 -0.3531  1.3628
11877SOL     OW35808   4.551   0.872   6.169  0.0943  0.2211 -0.7389
11877SOL    HW135809   4.624   0.939   6.186  0.6271 -0.6629  0.6513
11877SOL    HW235810   4.557   0.799   6.237 -1.3284 -0.5288 -1.3840
11878SOL     OW35811   0.808   1.461   1.647 -0.5047  0.4102 -0.0107
11878SOL    HW135812   0.755   1.441   1.564  0.1601  0.6961 -0.5125
11878SOL    HW235813   0.788   1.554   1.677 -0.8373  0.2656  0.2285
11879SOL     OW35814   0.641   0.680   1.628 -0.4026  0.2515 -0.2228
11879SOL    HW135815   0.542   0.676   1.634 -0.4542  1.1957 -0.4202
11879SOL    HW235816   0.674   0.767   1.664  0.1080  1.2546 -2.8563
11880SOL     OW35817   8.325   3.014   7.226 -0.0122  0.1578 -0.2951
11880SOL    HW135818   8.231   3.012   7.259  0.4696  0.9676  1.2552
11880SOL    HW235819   8.341   2.937   7.165 -1.3459 -0.6645  0.3482
11881SOL     OW35820   7.430   0.758   4.126 -0.1198 -0.4265 -0.7941
11881SOL    HW135821   7.346   0.813   4.116 -0.5043 -0.9612 -0.5568
11881SOL    HW235822   7.433   0.688   4.055 -0.7872 -1.5690  0.2794
11882SOL     OW35823   5.882   5.470   3.160 -0.2464  0.2415 -0.4485
11882SOL    HW135824   5.801   5.439   3.209  0.0725  1.2169  0.7284
11882SOL    HW235825   5.858   5.545   3.099 -0.2717  0.4196 -0.2227
11883SOL     OW35826   5.489   6.529   7.692 -0.5085  0.7430 -0.2213
11883SOL    HW135827   5.428   6.568   7.623 -2.3630 -0.1519  0.8260
11883SOL    HW235828   5.513   6.599   7.759 -4.1123  0.2581  1.8623
11884SOL     OW35829   5.658   0.166   8.022  0.0519 -0.2625  0.4289
11884SOL    HW135830   5.615   0.107   8.091  1.3175 -2.3256 -0.4549
11884SOL    HW235831   5.703   0.109   7.953 -0.2553  1.7479 -1.5417
11885SOL     OW35832   4.987   2.543   5.213 -0.1123 -0.0669 -0.3702
11885SOL    HW135833   5.001   2.603   5.134 -2.0342  0.8102 -0.0854
11885SOL    HW235834   5.008   2.592   5.297  1.0252 -0.7091 -0.2574
11886SOL     OW35835   2.818   1.552   2.082  0.0400 -0.3927  0.3076
11886SOL    HW135836   2.902   1.568   2.030 -0.3488 -1.4957 -0.6966
11886SOL    HW235837   2.765   1.637   2.086  1.0845  0.2570  0.7683
11887SOL     OW35838   6.087   6.380   8.586 -0.2767  0.6537 -0.0145
11887SOL    HW135839   6.045   6.347   8.670 -0.5201 -0.5571 -0.5886
11887SOL    HW235840   6.182   6.403   8.603  0.1108 -1.0217  0.2803
11888SOL     OW35841   0.042   0.270   6.062 -0.1099 -0.0758  0.7941
11888SOL    HW135842   0.004   0.362   6.073  1.0656  0.3733  1.2173
11888SOL    HW235843   0.134   0.276   6.025 -0.4317 -1.1570 -0.2600
11889SOL     OW35844   0.376   3.387   4.207 -0.1076  0.0007  0.3788
11889SOL    HW135845   0.339   3.385   4.300 -0.7905 -1.5898  0.1035
11889SOL    HW235846   0.475   3.402   4.211  0.4180 -3.0339  1.6134
11890SOL     OW35847   5.459   3.777   4.538 -0.0584 -0.5286  0.3237
11890SOL    HW135848   5.466   3.765   4.439  0.3466  0.6315  0.1969
11890SOL    HW235849   5.366   3.756   4.567 -1.0765  2.0193 -0.7854
11891SOL     OW35850   6.985   1.743   8.666 -0.8092  0.0970  0.5147
11891SOL    HW135851   7.015   1.773   8.576 -0.1543 -1.8186  0.0467
11891SOL    HW235852   6.886   1.754   8.673 -0.8450  0.4272 -0.3700
11892SOL     OW35853   3.360   5.317   4.840  0.2822  0.6355  0.3375
11892SOL    HW135854   3.382   5.317   4.938 -0.1879 -1.4283  0.4866
11892SOL    HW235855   3.445   5.316   4.787  0.5384  1.0218  0.7309
11893SOL     OW35856   3.851   0.958   0.652 -0.1130  0.0842  0.3495
11893SOL    HW135857   3.880   1.052   0.669  0.7730 -0.2373  0.6776
11893SOL    HW235858   3.807   0.953   0.562 -3.2765  1.4490  1.6933
11894SOL     OW35859   4.414   3.520   1.713  0.7305  0.4003  0.3652
11894SOL    HW135860   4.444   3.483   1.801 -0.3792  0.6209  0.8488
11894SOL    HW235861   4.410   3.619   1.719 -3.1058  0.3567  1.4193
11895SOL     OW35862   2.543   5.264   7.523  0.0271 -0.1699 -0.2000
11895SOL    HW135863   2.609   5.287   7.594 -0.9430  0.1889  0.6216
11895SOL    HW235864   2.470   5.207   7.563  0.6855 -2.0012 -1.4488
11896SOL     OW35865   6.156   3.824   1.339 -0.0739  0.4020 -0.2017
11896SOL    HW135866   6.127   3.891   1.270  0.3298  0.2828 -0.4896
11896SOL    HW235867   6.195   3.872   1.417 -0.1740  0.5188 -0.2221
11897SOL     OW35868   1.474   5.651   4.073  0.4085  0.2656 -0.5330
11897SOL    HW135869   1.530   5.587   4.022  0.3779  0.3704 -0.6989
11897SOL    HW235870   1.498   5.646   4.170  0.3008 -0.1004 -0.5251
11898SOL     OW35871   6.109   8.670   5.879 -0.1646 -0.1935  0.6347
11898SOL    HW135872   6.100   8.581   5.924 -0.8331  0.0246  0.9453
11898SOL    HW235873   6.086   8.660   5.782 -1.4841 -0.1258  0.9227
11899SOL     OW35874   4.443   5.090   2.188  0.1352 -0.2934 -0.4637
11899SOL    HW135875   4.450   5.004   2.137 -0.6985 -0.4732 -0.2905
11899SOL    HW235876   4.435   5.166   2.124 -1.7659 -0.5903 -0.6449
11900SOL     OW35877   0.749   7.328   5.657 -0.0159  0.1452  0.2578
11900SOL    HW135878   0.797   7.372   5.581  2.0583 -2.2349  0.0437
11900SOL    HW235879   0.796   7.348   5.742  0.6605 -1.1566  0.2172
11901SOL     OW35880   5.923   8.268   4.745  0.3383 -0.0030 -0.1749
11901SOL    HW135881   5.953   8.350   4.697 -0.6136  0.7531  0.4896
11901SOL    HW235882   5.898   8.291   4.838  2.6819 -1.5417  0.9379
11902SOL     OW35883   2.234   8.036   8.279  0.2534  0.6265  0.5080
11902SOL    HW135884   2.139   8.066   8.290  0.0957 -0.3818  2.5231
11902SOL    HW235885   2.235   7.945   8.237  0.2504  0.3380  1.1113
11903SOL     OW35886   2.899   0.263   8.826 -0.1809 -0.8133  0.5151
11903SOL    HW135887   2.981   0.294   8.874 -0.0736  1.6674 -1.0993
11903SOL    HW235888   2.925   0.199   8.753  0.1616 -0.9225  0.7308
11904SOL     OW35889   6.992   2.884   8.708 -0.0115 -0.1465  0.2219
11904SOL    HW135890   6.981   2.791   8.672  1.0578 -0.1138 -0.2162
11904SOL    HW235891   7.088   2.900   8.730  0.0436  1.2989 -0.9521
11905SOL     OW35892   5.075   5.139   4.277 -0.1145 -0.2803  0.4758
11905SOL    HW135893   5.045   5.157   4.370  0.4896  1.2642  0.4021
11905SOL    HW235894   5.173   5.121   4.276 -0.1770 -0.6084  0.1851
11906SOL     OW35895   1.112   5.691   1.947  0.2383  0.1842  0.1316
11906SOL    HW135896   1.182   5.732   1.889 -0.3966 -0.7667 -1.3917
11906SOL    HW235897   1.042   5.649   1.890  1.3795 -3.9857  1.4241
11907SOL     OW35898   0.516   3.991   6.539 -0.1055 -0.3271  0.4112
11907SOL    HW135899   0.607   3.949   6.531 -0.7825 -2.1113  1.3821
11907SOL    HW235900   0.502   4.021   6.633  0.2498  1.9176 -0.2073
11908SOL     OW35901   8.730   2.530   3.429 -0.0037 -0.0982 -0.1536
11908SOL    HW135902   8.793   2.552   3.354  0.2570  0.0575  0.1122
11908SOL    HW235903   8.674   2.610   3.450 -0.2434 -0.2135 -0.3386
11909SOL     OW35904   0.873   5.176   1.815 -0.3684 -0.2576  0.0126
11909SOL    HW135905   0.918   5.174   1.725 -0.6990 -0.5660 -0.1490
11909SOL    HW235906   0.910   5.252   1.869  1.4371 -1.3876  0.4536
11910SOL     OW35907   3.572   5.718   1.300 -0.4274 -0.1658 -0.3488
11910SOL    HW135908   3.586   5.620   1.317  2.0397  0.2399  0.3082
11910SOL    HW235909   3.645   5.770   1.344 -1.2700  1.9429 -1.3274
11911SOL     OW35910   4.393   8.541   6.225 -0.6172 -0.3217  0.5088
11911SOL    HW135911   4.358   8.448   6.218 -1.2253 -0.0429 -0.3537
11911SOL    HW235912   4.411   8.577   6.134 -0.0910  0.2987  0.8464
11912SOL     OW35913   6.222   2.554   0.066  0.1877  0.6265 -0.5017
11912SOL    HW135914   6.168   2.516  -0.009 -0.1443  0.9666 -0.4428
11912SOL    HW235915   6.296   2.610   0.030  0.7754 -0.1867 -0.5919
11913SOL     OW35916   6.073   5.742   5.092 -0.2090 -0.5086  0.3635
11913SOL    HW135917   6.168   5.771   5.101 -0.1886 -0.0853 -0.9742
11913SOL    HW235918   6.036   5.719   5.182 -0.2867  3.9045  1.6965
11914SOL     OW35919   3.311   2.089   8.476 -0.1707 -0.4416  0.2941
11914SOL    HW135920   3.297   2.104   8.378  0.2507  0.9437  0.4241
11914SOL    HW235921   3.260   2.158   8.528  1.8224  0.6399  0.9424
11915SOL     OW35922   7.860   5.322   8.583  0.1760  0.6387  0.4295
11915SOL    HW135923   7.864   5.417   8.612 -1.7909  0.6016  0.9654
11915SOL    HW235924   7.777   5.280   8.618  0.2205 -0.8391 -1.0998
11916SOL     OW35925   4.585   6.550   7.823  0.0263 -0.4190  0.0347
11916SOL    HW135926   4.673   6.511   7.799  0.0608 -1.5318  1.8089
11916SOL    HW235927   4.529   6.559   7.740  2.3069  1.8154 -1.3949
11917SOL     OW35928   6.413   5.823   3.353  0.2762  0.0569  0.3814
11917SOL    HW135929   6.341   5.759   3.382 -1.1441  1.6741  0.5462
11917SOL    HW235930   6.396   5.852   3.259 -1.4501  3.1676  1.5128
11918SOL     OW35931   1.801   7.481   8.395  0.1566 -0.1308 -0.0445
11918SOL    HW135932   1.794   7.383   8.417 -0.3060  0.2407  1.6879
11918SOL    HW235933   1.873   7.523   8.451 -1.5788  1.0325  1.4514
11919SOL     OW35934   7.733   7.802   5.376 -0.5680 -0.0936  0.3877
11919SOL    HW135935   7.699   7.827   5.285 -0.1428 -0.2371  0.1867
11919SOL    HW235936   7.820   7.848   5.392 -0.5287 -0.2520  0.6304
11920SOL     OW35937   0.932   3.948   6.650 -0.2786 -0.4364 -0.2893
11920SOL    HW135938   0.985   3.949   6.565 -1.6995 -1.8999 -1.2508
11920SOL    HW235939   0.853   4.007   6.641  0.2436  0.4239  0.5320
11921SOL     OW35940   7.343   1.742   8.423 -0.3444 -0.5755 -0.0118
11921SOL    HW135941   7.430   1.792   8.420 -0.4077 -0.4373  0.4316
11921SOL    HW235942   7.347   1.673   8.495 -0.2663 -1.2089 -0.6021
11922SOL     OW35943   7.403   0.280   6.432  0.2481 -0.3379  0.0587
11922SOL    HW135944   7.377   0.226   6.353 -1.0864 -1.9305  1.5093
11922SOL    HW235945   7.499   0.264   6.454  0.0121 -1.7600  0.1452
11923SOL     OW35946   1.899   1.818   6.164 -0.2382 -0.7797 -0.2196
11923SOL    HW135947   1.926   1.798   6.070  2.1559 -0.9415  0.4417
11923SOL    HW235948   1.886   1.732   6.214  0.9751 -0.7281  0.2197
11924SOL     OW35949   6.413   6.507   6.451 -0.0127 -0.3533  0.0214
11924SOL    HW135950   6.471   6.570   6.502 -0.5598  0.1509  0.0239
11924SOL    HW235951   6.468   6.460   6.381  0.2129  0.7768 -0.5851
11925SOL     OW35952   8.845   1.500   7.373  0.0702  0.1045 -0.1147
11925SOL    HW135953   8.775   1.515   7.444 -1.0143  0.6678 -1.2502
11925SOL    HW235954   8.920   1.447   7.411 -1.1713 -0.9021  1.0581
11926SOL     OW35955   7.401   4.881   3.385 -0.0715 -0.0124 -0.5309
11926SOL    HW135956   7.331   4.947   3.360 -1.0100 -1.2429 -1.2966
11926SOL    HW235957   7.457   4.918   3.459 -2.2507  0.5651  0.9239
11927SOL     OW35958   3.168   1.061   6.717  0.2797  0.2700  0.3330
11927SOL    HW135959   3.231   1.012   6.657  0.4118  0.3525  0.4047
11927SOL    HW235960   3.140   1.003   6.793 -0.1451  0.0518  0.0131
11928SOL     OW35961   8.236   7.971   6.878 -0.2202  0.7419  0.1206
11928SOL    HW135962   8.251   7.910   6.955  0.7278  0.1297 -0.5302
11928SOL    HW235963   8.170   8.041   6.903 -1.1037 -0.3716  0.9761
11929SOL     OW35964   3.769   6.438   2.003  0.1160 -0.2170 -0.9078
11929SOL    HW135965   3.772   6.533   1.971  0.4948  0.1104  0.0640
11929SOL    HW235966   3.782   6.436   2.103 -2.6909 -1.0516 -0.4738
11930SOL     OW35967   2.136   0.412   1.886 -0.7154  0.4219  0.0424
11930SOL    HW135968   2.136   0.319   1.924  1.0511  0.0008 -0.8639
11930SOL    HW235969   2.130   0.478   1.960  0.9982 -0.3965  0.9863
11931SOL     OW35970   7.847   0.516   4.839 -1.1149 -0.0146 -0.1087
11931SOL    HW135971   7.796   0.530   4.924 -0.1986  0.7894  0.3283
11931SOL    HW235972   7.798   0.451   4.781 -0.9570 -1.8307  1.7169
11932SOL     OW35973   4.321   2.373   8.682  0.1548 -0.2965  0.6535
11932SOL    HW135974   4.376   2.412   8.756  1.2673 -0.5599 -0.0247
11932SOL    HW235975   4.306   2.275   8.701  1.1482 -0.5603  0.1287
11933SOL     OW35976   6.531   1.475   5.087  0.1178  0.5114  0.6805
11933SOL    HW135977   6.542   1.376   5.100  0.9060  0.7290  1.8599
11933SOL    HW235978   6.433   1.497   5.085 -0.0881 -0.4188 -0.8372
11934SOL     OW35979   2.188   6.522   7.008 -0.4025  0.1385  0.6659
11934SOL    HW135980   2.094   6.496   6.986 -0.5518 -0.5207  1.9900
11934SOL    HW235981   2.243   6.522   6.924 -1.6734  1.0188 -0.2077
11935SOL     OW35982   4.731   0.776   8.125  0.3729 -0.0364 -0.2809
11935SOL    HW135983   4.727   0.722   8.209 -2.7184 -1.3464 -1.1250
11935SOL    HW235984   4.750   0.716   8.048  0.9339  0.7847 -0.7927
11936SOL     OW35985   2.110   6.206   6.744  0.4048 -0.2164 -0.3398
11936SOL    HW135986   2.058   6.229   6.826  1.0762  0.5707 -0.1173
11936SOL    HW235987   2.071   6.125   6.701 -1.7132  0.9735 -0.8066
11937SOL     OW35988   2.167   3.293   6.360  0.4552 -0.4381  0.5576
11937SOL    HW135989   2.170   3.315   6.263  0.6060  0.9726  0.8561
11937SOL    HW235990   2.072   3.291   6.391  0.2460 -2.9054  0.0001
11938SOL     OW35991   2.411   2.124   1.077  0.0668  0.2908  0.9132
11938SOL    HW135992   2.380   2.183   1.002  1.8882  0.5662  0.3224
11938SOL    HW235993   2.467   2.178   1.140  1.4343 -0.6667  0.5727
11939SOL     OW35994   3.065   2.631   4.586 -0.6177 -0.3217 -0.8190
11939SOL    HW135995   3.090   2.691   4.511  0.2367  1.3804  0.7385
11939SOL    HW235996   3.127   2.646   4.663 -2.7604 -0.3970  1.0389
11940SOL     OW35997   0.187   0.701   0.982 -0.0427 -0.2161 -0.0201
11940SOL    HW135998   0.105   0.643   0.982  1.2890 -2.1912 -0.0236
11940SOL    HW235999   0.248   0.672   0.908  0.2860  1.8188 -0.5986
11941SOL     OW36000   2.091   7.175   0.407 -0.3926 -0.0996  0.0973
11941SOL    HW136001   2.124   7.113   0.336 -1.4532  0.3977 -0.8790
11941SOL    HW236002   2.161   7.186   0.477 -0.5764 -3.2753  0.9286
11942SOL     OW36003   1.534   2.268   1.754 -0.0422 -0.2876  0.6595
11942SOL    HW136004   1.602   2.247   1.825 -0.1223  1.1952  1.2116
11942SOL    HW236005   1.493   2.358   1.773 -2.5175 -1.3367  0.6059
11943SOL     OW36006   0.915   1.104   3.999 -0.2592  0.5393 -0.6300
11943SOL    HW136007   0.841   1.038   3.985  0.1030  0.2127 -1.0186
11943SOL    HW236008   0.946   1.139   3.911 -0.6589  1.4737 -0.4068
11944SOL     OW36009   5.954   4.277   8.645  0.2343 -0.5471 -0.1242
11944SOL    HW136010   5.940   4.343   8.572  0.4225  1.6613  1.7305
11944SOL    HW236011   6.052   4.264   8.660  0.2014 -1.5973 -0.7497
11945SOL     OW36012   3.413   4.675   2.554  0.1863  0.3067 -0.6417
11945SOL    HW136013   3.465   4.760   2.550  0.1992  0.4107  1.1149
11945SOL    HW236014   3.316   4.695   2.539 -0.0228  0.8904  1.2489
11946SOL     OW36015   1.104   4.100   2.577  0.0814 -0.3763 -0.5167
11946SOL    HW136016   1.178   4.088   2.643 -0.1449  0.7224 -0.0509
11946SOL    HW236017   1.132   4.064   2.488  0.2223 -2.3338  0.2579
11947SOL     OW36018   7.479   7.535   6.298 -0.1561 -0.1149 -0.5263
11947SOL    HW136019   7.508   7.479   6.221  1.3889  1.0362 -0.8391
11947SOL    HW236020   7.545   7.525   6.373 -1.3362 -0.7864  0.4464
11948SOL     OW36021   6.716   7.548   4.181  0.2226  0.4653  0.0299
11948SOL    HW136022   6.677   7.612   4.248  0.4152  0.7767 -0.1485
11948SOL    HW236023   6.652   7.537   4.105  0.6180  1.2570 -0.4369
11949SOL     OW36024   0.593   8.643   5.719  0.1136  0.3760  0.5860
11949SOL    HW136025   0.554   8.735   5.722 -0.9487  0.0144 -1.0168
11949SOL    HW236026   0.543   8.583   5.781 -1.3457  0.1490 -0.7424
11950SOL     OW36027   1.642   7.127   0.358  0.0270  0.0012  0.1039
11950SOL    HW136028   1.732   7.086   0.373 -0.1865 -0.2386  0.7840
11950SOL    HW236029   1.653   7.219   0.321  0.5390 -0.2211 -0.3062
11951SOL     OW36030   5.162   5.448   5.275  0.2908 -0.6140 -0.2577
11951SOL    HW136031   5.129   5.503   5.351 -1.0083 -0.9093 -0.5877
11951SOL    HW236032   5.183   5.508   5.197 -1.0433 -0.5425 -0.5876
11952SOL     OW36033   3.696   7.216   3.743  0.9879  0.5468  0.1223
11952SOL    HW136034   3.705   7.192   3.647  0.1117  3.1718 -0.7028
11952SOL    HW236035   3.779   7.262   3.774  2.0770 -1.9747  1.2768
11953SOL     OW36036   3.915   5.317   5.419 -0.2559 -0.0982 -0.3594
11953SOL    HW136037   3.934   5.390   5.484  2.6660 -0.3945 -0.7514
11953SOL    HW236038   3.834   5.341   5.365 -1.9316  0.7946  2.3285
11954SOL     OW36039   4.636   8.271   0.363 -0.1257 -0.1467 -0.2448
11954SOL    HW136040   4.651   8.305   0.270 -0.2835 -1.3110 -0.7167
11954SOL    HW236041   4.539   8.274   0.385 -0.0286  0.6371  0.0926
11955SOL     OW36042   3.982   2.381   7.574 -0.2284  0.3294 -0.1744
11955SOL    HW136043   4.013   2.465   7.619  0.0657 -0.2588  0.7401
11955SOL    HW236044   3.913   2.404   7.504  0.0361  1.3472 -0.1162
11956SOL     OW36045   3.626   2.745   6.382  0.3090 -0.4518  0.7456
11956SOL    HW136046   3.696   2.792   6.328 -0.4746 -0.6686 -0.5026
11956SOL    HW236047   3.650   2.750   6.479  1.6792  0.0836  0.4066
11957SOL     OW36048   6.923   2.742   1.049  0.6334  0.0761 -0.7477
11957SOL    HW136049   6.951   2.735   1.145  1.0113 -1.1760 -0.9321
11957SOL    HW236050   6.985   2.688   0.992  0.0391  0.3014 -1.6270
11958SOL     OW36051   7.153   7.642   5.105  0.1641  0.1270  0.8083
11958SOL    HW136052   7.059   7.650   5.139 -0.5345  0.3889 -1.0495
11958SOL    HW236053   7.176   7.546   5.090 -0.3856  0.1344 -0.1703
11959SOL     OW36054   8.506   3.326   6.624 -0.2349 -0.7884 -0.2472
11959SOL    HW136055   8.557   3.252   6.580  0.2907 -0.1338 -0.7863
11959SOL    HW236056   8.508   3.407   6.564  0.1885  0.0158  0.8162
11960SOL     OW36057   6.196   3.232   4.291 -0.0347 -0.4865 -0.2206
11960SOL    HW136058   6.283   3.269   4.325 -0.5492  0.7274 -0.1853
11960SOL    HW236059   6.207   3.202   4.196  0.4941 -0.6304 -0.1193
11961SOL     OW36060   0.406   6.457   6.362 -0.1619  0.4882 -0.4055
11961SOL    HW136061   0.495   6.502   6.370  0.3290 -0.3411 -1.0937
11961SOL    HW236062   0.346   6.514   6.306 -0.4657  1.6102  1.0042
11962SOL     OW36063   4.365   5.574   5.637  0.0066 -0.2037  0.1678
11962SOL    HW136064   4.344   5.495   5.580 -0.2814 -0.9225  1.2344
11962SOL    HW236065   4.362   5.657   5.582  0.7118 -0.9684 -1.0696
11963SOL     OW36066   5.470   3.000   7.985  0.2405  0.1711  0.2352
11963SOL    HW136067   5.425   3.038   8.066 -0.3074  3.0915 -1.2707
11963SOL    HW236068   5.417   2.922   7.951  0.0109 -0.5546  2.1553
11964SOL     OW36069   2.152   7.443   2.283 -0.4890  0.3454  0.5850
11964SOL    HW136070   2.066   7.394   2.270  0.3787 -1.4405  1.1774
11964SOL    HW236071   2.190   7.470   2.194 -0.0443 -1.8468  0.0576
11965SOL     OW36072   1.958   3.865   4.079 -0.1592 -0.2616 -0.2423
11965SOL    HW136073   2.002   3.775   4.078  0.6058  0.1114 -0.4759
11965SOL    HW236074   2.012   3.928   4.134 -0.9318 -0.0517  0.2940
11966SOL     OW36075   4.370   4.896   1.564 -0.0348 -0.4028 -0.0450
11966SOL    HW136076   4.292   4.871   1.508  0.1986 -2.3832  0.4262
11966SOL    HW236077   4.438   4.943   1.508 -0.4854 -0.9163 -1.0425
11967SOL     OW36078   4.367   6.989   5.674  0.7286  0.3360 -0.2796
11967SOL    HW136079   4.375   7.024   5.581 -0.2054  1.2063 -0.0495
11967SOL    HW236080   4.306   6.910   5.674 -0.3824  1.1754 -0.2184
11968SOL     OW36081   4.728   2.319   3.233  0.1708  0.0245 -0.0968
11968SOL    HW136082   4.814   2.298   3.186 -0.4207 -2.1147 -0.3377
11968SOL    HW236083   4.699   2.239   3.286 -1.2979  0.9708  0.5791
11969SOL     OW36084   1.692   1.965   8.341  0.2643  0.2940 -0.0758
11969SOL    HW136085   1.657   1.884   8.389 -0.2492 -0.1336 -1.1399
11969SOL    HW236086   1.715   2.036   8.407 -0.1787 -0.3773  0.8132
11970SOL     OW36087   8.091   2.353   5.934 -0.2441 -0.3054 -0.3021
11970SOL    HW136088   8.058   2.259   5.935  0.5918 -0.6053  1.2137
11970SOL    HW236089   8.186   2.356   5.966  0.4022  0.8380 -2.1668
11971SOL     OW36090   4.536   2.121   1.326 -0.2849 -0.2032 -0.3185
11971SOL    HW136091   4.563   2.119   1.422 -2.6779 -0.8022  0.4212
11971SOL    HW236092   4.613   2.150   1.270  0.9015  1.1344  1.8720
11972SOL     OW36093   2.723   3.637   1.589 -0.7044  0.6654  0.5101
11972SOL    HW136094   2.663   3.578   1.535  1.3311 -0.0713 -1.0844
11972SOL    HW236095   2.740   3.595   1.679  1.3709 -1.7502 -0.8883
11973SOL     OW36096   5.732   0.858   2.320  0.2467  0.0601 -0.4726
11973SOL    HW136097   5.692   0.770   2.344 -0.6472  0.5717 -0.0406
11973SOL    HW236098   5.666   0.931   2.337  1.4117  0.9527  0.3871
11974SOL     OW36099   3.671   2.589   8.369  0.1004 -0.1324 -0.3209
11974SOL    HW136100   3.627   2.679   8.362 -0.9015 -0.6663 -1.3197
11974SOL    HW236101   3.648   2.548   8.457 -0.2099  0.2129 -0.2352
11975SOL     OW36102   7.273   5.751   8.428 -0.1071 -0.1874  0.7135
11975SOL    HW136103   7.277   5.850   8.442 -2.0162  0.0166  0.0122
11975SOL    HW236104   7.211   5.731   8.352  0.6701 -1.9046  0.5026
11976SOL     OW36105   7.939   1.449   3.229  0.5204 -0.4627  0.4944
11976SOL    HW136106   7.951   1.472   3.326 -0.1970 -1.6675  0.8993
11976SOL    HW236107   7.997   1.371   3.206  0.1197 -0.6666  0.1567
11977SOL     OW36108   0.421   1.960   4.125  0.3945  0.2141  0.4511
11977SOL    HW136109   0.487   1.976   4.198 -1.1800  0.6625  1.8664
11977SOL    HW236110   0.372   1.874   4.143  0.9017 -0.3743 -0.8408
11978SOL     OW36111   6.138   3.143   2.461 -0.4744 -0.2112 -0.3593
11978SOL    HW136112   6.098   3.053   2.441 -0.6330 -1.3691  4.0670
11978SOL    HW236113   6.067   3.213   2.459 -1.4880 -1.1385  0.9866
11979SOL     OW36114   2.545   6.137   4.296  0.0963  0.0364  0.1880
11979SOL    HW136115   2.625   6.161   4.240  0.7014  1.1859  1.4685
11979SOL    HW236116   2.571   6.066   4.361  0.5274  1.3445  1.5164
11980SOL     OW36117   2.451   1.639   4.592  0.0532 -0.3866  0.3667
11980SOL    HW136118   2.540   1.613   4.628  0.4417  0.6204  0.1722
11980SOL    HW236119   2.423   1.727   4.632  0.4031  0.6540 -1.5569
11981SOL     OW36120   7.477   1.374   7.968  0.4272  0.0730  0.4725
11981SOL    HW136121   7.464   1.418   7.879  0.0936 -0.3779  0.2953
11981SOL    HW236122   7.388   1.347   8.006  0.7158 -2.1468 -0.2969
11982SOL     OW36123   2.355   3.238   8.731 -0.0538  0.1474 -0.0037
11982SOL    HW136124   2.414   3.248   8.811 -0.2784 -0.3618  0.2245
11982SOL    HW236125   2.340   3.328   8.690 -1.8543  0.7659  1.8745
11983SOL     OW36126   0.221   8.269   5.235 -0.6321  0.4221 -0.1020
11983SOL    HW136127   0.170   8.332   5.295 -1.9375  0.2870 -1.0185
11983SOL    HW236128   0.264   8.321   5.161  0.5292  0.5241  0.6172
11984SOL     OW36129   1.948   2.748   8.226 -0.0787 -0.2387  0.1156
11984SOL    HW136130   1.929   2.846   8.215 -0.4270 -0.2281  0.7843
11984SOL    HW236131   2.044   2.736   8.253  0.4192 -0.1878 -1.4900
11985SOL     OW36132   0.479   4.502   8.752  0.1833  0.2955  0.2019
11985SOL    HW136133   0.535   4.421   8.734  0.4669  0.7740 -1.1627
11985SOL    HW236134   0.391   4.474   8.791 -0.3461 -0.8019 -1.6879
11986SOL     OW36135   2.303   5.923   5.460 -0.0056 -0.0330 -0.0266
11986SOL    HW136136   2.299   5.931   5.360  0.4903  0.3634 -0.0175
11986SOL    HW236137   2.351   5.839   5.484 -0.1176 -0.1250 -0.1221
11987SOL     OW36138   5.366   6.609   1.382  0.3474  0.3077  0.2576
11987SOL    HW136139   5.368   6.651   1.291  1.2416 -1.0113 -0.3584
11987SOL    HW236140   5.271   6.596   1.411  0.0515  1.3805 -0.1542
11988SOL     OW36141   5.617   7.301   3.454  0.4387 -0.1070  0.1019
11988SOL    HW136142   5.642   7.265   3.364  0.4612 -0.1263  0.1160
11988SOL    HW236143   5.680   7.376   3.478  2.1317 -1.8194  1.2674
11989SOL     OW36144   1.641   7.298   2.178 -0.3717 -0.2956  0.8071
11989SOL    HW136145   1.676   7.217   2.226 -1.4527 -0.6718  0.9909
11989SOL    HW236146   1.569   7.340   2.233 -0.0828  0.5808  0.5327
11990SOL     OW36147   1.261   5.358   1.509  0.1902 -0.1842 -0.6903
11990SOL    HW136148   1.344   5.344   1.563  0.7236 -0.3101 -1.5227
11990SOL    HW236149   1.271   5.440   1.452  0.5167 -1.1892 -2.1593
11991SOL     OW36150   8.716   7.844   7.743 -0.0488 -0.0862  0.5124
11991SOL    HW136151   8.780   7.813   7.813  1.0334 -0.0704 -0.4401
11991SOL    HW236152   8.745   7.808   7.654 -1.0504  0.3916 -0.0181
11992SOL     OW36153   3.768   5.676   3.988 -0.0206 -0.3452 -0.1875
11992SOL    HW136154   3.810   5.590   4.015 -0.6375 -1.3628 -2.2968
11992SOL    HW236155   3.672   5.661   3.966  0.2412  0.5316 -2.1320
11993SOL     OW36156   1.258   8.439   6.831 -0.1505  0.3910  0.7524
11993SOL    HW136157   1.293   8.398   6.747  0.9569  3.1999 -0.2513
11993SOL    HW236158   1.170   8.397   6.854 -0.7659 -0.0920 -2.0824
11994SOL     OW36159   8.211   3.025   6.839  0.1063  0.4000  0.1420
11994SOL    HW136160   8.281   3.094   6.856 -0.5103  0.9450  0.5236
11994SOL    HW236161   8.253   2.943   6.799  1.0034  0.5975  0.6563
11995SOL     OW36162   3.704   3.255   3.154 -0.4769  0.2939 -0.2383
11995SOL    HW136163   3.784   3.303   3.189  0.6469 -0.5243 -1.5813
11995SOL    HW236164   3.673   3.300   3.070  0.1148 -0.8234 -1.0792
11996SOL     OW36165   1.735   3.786   0.930  0.3540  0.4032 -0.0497
11996SOL    HW136166   1.663   3.716   0.933 -0.0086  0.7836  0.1440
11996SOL    HW236167   1.694   3.876   0.915  0.4433  1.1025  3.0933
11997SOL     OW36168   2.176   4.633   6.070  0.2603  0.1313 -0.2280
11997SOL    HW136169   2.088   4.606   6.032  0.6748 -1.7213  0.0094
11997SOL    HW236170   2.168   4.642   6.170  0.0998  1.0942 -0.3142
11998SOL     OW36171   6.659   4.174   8.726 -0.6160  0.3534  0.3445
11998SOL    HW136172   6.618   4.084   8.738 -0.6968  0.3477  0.0329
11998SOL    HW236173   6.634   4.211   8.636 -0.0001  0.3837  0.1816
11999SOL     OW36174   3.384   3.227   2.492 -0.5479  0.2163  0.2447
11999SOL    HW136175   3.314   3.207   2.560  2.0317  0.2171  3.1543
11999SOL    HW236176   3.434   3.142   2.471 -0.8457  0.3658 -1.1302
12000SOL     OW36177   1.872   3.482   0.749 -0.0064 -0.2741 -0.6145
12000SOL    HW136178   1.863   3.581   0.741  0.4733  0.0241  1.9699
12000SOL    HW236179   1.802   3.438   0.692 -0.0240  1.4935 -2.0583
12001SOL     OW36180   5.240   0.563   6.346 -0.5643  0.2011 -0.1541
12001SOL    HW136181   5.286   0.550   6.259 -4.5548 -1.3548 -2.2653
12001SOL    HW236182   5.179   0.642   6.340  0.8631  1.6057  2.1958
12002SOL     OW36183   6.230   6.716   6.269  0.4622  0.4782 -0.4561
12002SOL    HW136184   6.281   6.645   6.221 -0.2259 -1.3840  1.4005
12002SOL    HW236185   6.249   6.710   6.367 -1.2643  1.4933 -0.0185
12003SOL     OW36186   3.285   8.343   5.465 -0.0238 -0.0763  0.2978
12003SOL    HW136187   3.353   8.374   5.532 -0.7605  0.4178  0.8469
12003SOL    HW236188   3.267   8.417   5.399 -0.1025 -0.1635  0.2224
12004SOL     OW36189   4.028   8.476   8.066  0.1440 -0.1710  0.0442
12004SOL    HW136190   4.075   8.396   8.029  1.0302 -0.0487  0.8699
12004SOL    HW236191   4.018   8.466   8.165  0.6735  0.9346  0.2264
12005SOL     OW36192   1.189   2.662   1.120 -0.0453 -0.3547 -0.4681
12005SOL    HW136193   1.240   2.661   1.206  0.8513 -0.1293 -0.9921
12005SOL    HW236194   1.091   2.665   1.140  0.1774  2.5308  0.5497
12006SOL     OW36195   4.440   1.714   0.434  0.3233  0.9208  0.2791
12006SOL    HW136196   4.500   1.790   0.460  2.3490  0.2313 -1.9856
12006SOL    HW236197   4.345   1.746   0.430  0.9405  2.9743  0.6342
12007SOL     OW36198   6.189   2.539   2.307 -0.3528  0.1372 -0.1323
12007SOL    HW136199   6.235   2.540   2.396 -1.6719  0.8202  0.5717
12007SOL    HW236200   6.257   2.547   2.234  0.7173 -0.0463  0.8201
12008SOL     OW36201   4.394   0.550   0.250  0.7019  0.1008  0.3573
12008SOL    HW136202   4.350   0.619   0.192  1.4117  0.0018 -0.3152
12008SOL    HW236203   4.380   0.574   0.346  0.0426  0.6071  0.1418
12009SOL     OW36204   0.832   5.016   7.713  0.2858 -0.4555 -0.4324
12009SOL    HW136205   0.870   4.946   7.773  0.3235  0.0880  0.1860
12009SOL    HW236206   0.867   5.105   7.739 -0.9131 -0.0189 -0.2534
12010SOL     OW36207   6.906   1.845   4.476 -0.5101 -0.4095  0.5169
12010SOL    HW136208   6.911   1.760   4.529 -0.1827 -1.2440 -0.7988
12010SOL    HW236209   6.893   1.922   4.538 -0.2275 -1.3506  1.7925
12011SOL     OW36210   2.407   4.573   0.917 -0.2129 -0.8577  0.1251
12011SOL    HW136211   2.338   4.502   0.907 -2.1753  0.6990  1.8828
12011SOL    HW236212   2.443   4.572   1.010 -0.0654  0.2832  0.0896
12012SOL     OW36213   6.587   1.667   1.435  0.3488 -0.3511 -0.0421
12012SOL    HW136214   6.647   1.739   1.470  1.4019 -1.4027  0.3620
12012SOL    HW236215   6.571   1.599   1.506 -0.8892 -0.3837 -0.3236
12013SOL     OW36216   7.473   1.884   7.088  0.1165  0.0615 -0.1614
12013SOL    HW136217   7.444   1.977   7.110  0.0609 -0.2313  1.0517
12013SOL    HW236218   7.448   1.822   7.162 -1.0488 -1.1861 -1.5283
12014SOL     OW36219   3.455   2.783   6.782 -0.0595  0.1097 -0.0331
12014SOL    HW136220   3.381   2.722   6.753 -0.1715 -0.0197  0.5145
12014SOL    HW236221   3.477   2.765   6.878 -0.7875  1.6331  0.4460
12015SOL     OW36222   1.695   8.331   4.481 -0.0152  0.5503 -0.1020
12015SOL    HW136223   1.784   8.377   4.491  0.6518  0.0971 -3.0299
12015SOL    HW236224   1.629   8.394   4.440  0.5182 -0.5354 -2.8461
12016SOL     OW36225   0.920   0.744   0.796 -0.7364  0.2190 -0.0144
12016SOL    HW136226   0.992   0.694   0.845  0.4930  1.1982 -0.7382
12016SOL    HW236227   0.957   0.831   0.763 -2.0429  0.3965 -1.1029
12017SOL     OW36228   2.770   3.867   6.806  0.7463  0.2999  0.4085
12017SOL    HW136229   2.724   3.795   6.857 -2.3644 -2.2572 -5.0776
12017SOL    HW236230   2.705   3.942   6.787  1.4192  0.6716 -0.5358
12018SOL     OW36231   8.518   3.679   6.663  0.0257 -0.7804  0.3041
12018SOL    HW136232   8.455   3.739   6.713 -1.7707 -1.4599 -1.0291
12018SOL    HW236233   8.602   3.729   6.643 -0.1883  0.2802  1.8683
12019SOL     OW36234   1.860   3.812   6.386  0.4242 -0.4450 -0.9325
12019SOL    HW136235   1.899   3.740   6.442 -0.1932  0.8440  1.2917
12019SOL    HW236236   1.870   3.900   6.433 -0.8952  0.5962 -2.4741
12020SOL     OW36237   8.404   5.146   2.014 -0.3149 -0.7970  0.5542
12020SOL    HW136238   8.352   5.172   1.932  1.7497 -0.8712 -0.8472
12020SOL    HW236239   8.465   5.220   2.040 -0.3251 -1.1203  1.5409
12021SOL     OW36240   6.068   3.374   6.332 -0.1267 -0.1484  0.0209
12021SOL    HW136241   6.108   3.466   6.328 -1.0020  0.2108 -0.9192
12021SOL    HW236242   6.013   3.365   6.415 -0.9163  0.5657 -0.4084
12022SOL     OW36243   4.936   1.241   8.857 -0.5913  0.0857 -0.4122
12022SOL    HW136244   4.841   1.232   8.889 -1.1047  1.4097 -1.4653
12022SOL    HW236245   4.944   1.206   8.764 -0.1196  0.3140 -0.4605
12023SOL     OW36246   3.369   3.116   4.760 -0.6689  0.2526 -0.2121
12023SOL    HW136247   3.286   3.149   4.804 -0.7602 -0.9921  0.5820
12023SOL    HW236248   3.394   3.026   4.797 -0.0578 -0.2854 -1.8356
12024SOL     OW36249   7.422   5.075   4.631 -0.9879  0.3940  0.2399
12024SOL    HW136250   7.341   5.048   4.683 -1.3101  0.5982 -0.1526
12024SOL    HW236251   7.394   5.124   4.549 -0.4449  1.1285  0.4809
12025SOL     OW36252   7.870   0.595   2.868 -0.2782 -0.4537 -0.4862
12025SOL    HW136253   7.887   0.686   2.907 -2.6954 -1.1953  2.7257
12025SOL    HW236254   7.772   0.582   2.858 -0.2349 -3.6807  1.9485
12026SOL     OW36255   5.995   2.161   1.770 -0.0767 -0.1811 -0.2504
12026SOL    HW136256   6.035   2.070   1.761  0.5451  0.2929 -3.1376
12026SOL    HW236257   5.897   2.152   1.788  0.3048 -1.3515  1.5485
12027SOL     OW36258   4.140   6.022   3.873 -0.4965  0.1004 -0.8204
12027SOL    HW136259   4.084   6.050   3.951 -0.0132 -1.8240  0.2793
12027SOL    HW236260   4.180   6.103   3.830  0.6317  1.1695  2.0080
12028SOL     OW36261   8.683   1.387   5.698  0.2348 -0.0312 -0.2750
12028SOL    HW136262   8.675   1.444   5.616  1.2552  0.0502 -0.3420
12028SOL    HW236263   8.747   1.312   5.679  0.3527 -0.1052  0.3948
12029SOL     OW36264   7.845   5.660   2.177  0.5808 -0.4146  0.4816
12029SOL    HW136265   7.825   5.628   2.270 -1.2572  2.1240  1.0652
12029SOL    HW236266   7.887   5.751   2.181  1.8001 -0.8580 -1.1757
12030SOL     OW36267   1.070   2.509   7.494  0.2216  0.0148  0.5364
12030SOL    HW136268   1.116   2.568   7.427 -0.9271  0.2404 -0.0863
12030SOL    HW236269   1.088   2.543   7.586  0.5668  0.6225  0.2558
12031SOL     OW36270   1.750   8.816   2.271 -0.1665 -0.7599 -0.4762
12031SOL    HW136271   1.779   8.781   2.360  2.2115  2.4174  0.1944
12031SOL    HW236272   1.655   8.846   2.275 -0.5774 -2.0902  0.4444
12032SOL     OW36273   5.917   4.829   8.156  0.4853 -0.2226  0.5520
12032SOL    HW136274   5.961   4.740   8.172 -1.1101 -1.0104  0.7307
12032SOL    HW236275   5.873   4.828   8.066  1.0679  0.6728  0.2438
12033SOL     OW36276   2.840   8.226   3.547 -0.5421  0.1660 -0.0674
12033SOL    HW136277   2.934   8.234   3.513  0.0792  0.0260  1.5041
12033SOL    HW236278   2.833   8.146   3.606 -1.4194  0.6652  0.5336
12034SOL     OW36279   0.399   8.592   4.718  0.6022 -0.3586 -0.3797
12034SOL    HW136280   0.310   8.548   4.724  0.4124  0.0923  0.2752
12034SOL    HW236281   0.419   8.614   4.623  0.1257 -0.6803 -0.5602
12035SOL     OW36282   5.432   6.185   6.869 -0.9123  0.2486  0.5334
12035SOL    HW136283   5.460   6.143   6.956 -0.2390  2.2292  1.3239
12035SOL    HW236284   5.385   6.271   6.887 -0.8816  0.6307 -1.0663
12036SOL     OW36285   6.462   6.584   3.847 -0.4052  0.2622  0.1942
12036SOL    HW136286   6.536   6.524   3.876 -0.4184 -0.2726 -0.8408
12036SOL    HW236287   6.375   6.547   3.879 -0.3308  0.2288  0.3576
12037SOL     OW36288   0.169   4.371   8.631 -0.3189  0.1517  0.0055
12037SOL    HW136289   0.128   4.293   8.583 -0.3152  0.2093 -0.0923
12037SOL    HW236290   0.236   4.415   8.572 -0.1576  0.0932  0.1444
12038SOL     OW36291   7.405   0.148   4.457 -0.3455  0.6772  0.2683
12038SOL    HW136292   7.447   0.237   4.476 -0.0296  0.5060  0.3880
12038SOL    HW236293   7.477   0.079   4.446 -0.6148  0.2049  1.3298
12039SOL     OW36294   7.303   4.090   8.672  0.0511  0.0072  0.1562
12039SOL    HW136295   7.246   4.014   8.642  0.7964 -0.6431  0.3350
12039SOL    HW236296   7.389   4.054   8.709  0.4897  0.9480  0.0848
12040SOL     OW36297   2.184   7.675   6.371  0.6716 -0.3928 -0.2116
12040SOL    HW136298   2.197   7.741   6.445  1.3207 -1.8449  1.0122
12040SOL    HW236299   2.144   7.722   6.292  1.3809  1.5079  0.5001
12041SOL     OW36300   6.666   8.483   5.302 -0.7113  0.3308 -0.3963
12041SOL    HW136301   6.634   8.411   5.241  0.4293  0.1826 -0.8401
12041SOL    HW236302   6.587   8.533   5.339 -1.5365 -1.2329  0.0516
12042SOL     OW36303   2.269   8.057   4.344  0.2647 -0.1080 -0.1072
12042SOL    HW136304   2.248   8.057   4.441 -1.8428  2.0335 -0.4704
12042SOL    HW236305   2.293   8.149   4.315  0.0485 -0.5424 -1.7773
12043SOL     OW36306   2.856   2.111   2.672  0.1885  0.1788  0.0294
12043SOL    HW136307   2.822   2.163   2.750  0.2568  2.6813 -1.5122
12043SOL    HW236308   2.817   2.148   2.588  1.2151 -1.5303 -1.2671
12044SOL     OW36309   5.468   8.255   7.584 -0.4109 -0.4045  0.3003
12044SOL    HW136310   5.427   8.346   7.570 -1.1839 -0.7700  0.1334
12044SOL    HW236311   5.449   8.198   7.504 -1.2099 -1.1821  1.0331
12045SOL     OW36312   3.160   6.747   3.312 -0.6338 -0.2707  0.3297
12045SOL    HW136313   3.085   6.722   3.372 -0.8540 -0.1452  0.1062
12045SOL    HW236314   3.241   6.767   3.367 -1.0223  0.5123  0.6311
12046SOL     OW36315   1.888   5.706   8.447  0.1290 -0.4105 -0.3619
12046SOL    HW136316   1.907   5.675   8.540  1.5259 -0.2627 -0.5785
12046SOL    HW236317   1.924   5.640   8.381  0.9756  0.4526 -0.8013
12047SOL     OW36318   4.334   7.030   2.470 -0.3732 -0.6443 -0.3723
12047SOL    HW136319   4.386   6.944   2.465 -0.0733 -0.4976  0.0884
12047SOL    HW236320   4.364   7.092   2.398 -0.4016 -0.8252 -0.5407
12048SOL     OW36321   6.355   8.387   7.406 -0.0694 -0.1853 -0.0080
12048SOL    HW136322   6.384   8.430   7.321  1.0280  0.3996  0.6490
12048SOL    HW236323   6.423   8.319   7.434  0.7698  1.2322  1.5724
12049SOL     OW36324   3.088   1.359   3.531  0.6982  0.2319  0.5879
12049SOL    HW136325   3.147   1.296   3.581  0.9227 -0.8918 -1.0117
12049SOL    HW236326   3.002   1.313   3.507 -0.9069  1.8212  2.8571
12050SOL     OW36327   7.518   1.580   2.026  0.2097 -0.3920  0.0639
12050SOL    HW136328   7.544   1.619   1.938 -0.0251  1.4203  0.7622
12050SOL    HW236329   7.445   1.634   2.067 -0.0044 -1.4761  1.1759
12051SOL     OW36330   6.906   5.964   2.072 -0.0442 -0.1151 -0.0470
12051SOL    HW136331   6.939   5.892   2.134 -1.2346  0.2214  1.0247
12051SOL    HW236332   6.977   6.033   2.060  0.0653  0.0440  1.3427
12052SOL     OW36333   7.030   4.442   6.570 -0.2947 -0.3379  0.1577
12052SOL    HW136334   6.967   4.499   6.517  0.8628 -0.3908 -1.3573
12052SOL    HW236335   7.012   4.346   6.550 -1.1287 -0.4645  1.4059
12053SOL     OW36336   2.768   7.402   4.002 -0.2017 -0.1653 -0.0293
12053SOL    HW136337   2.718   7.487   4.016  0.5545  0.3900 -0.6011
12053SOL    HW236338   2.765   7.347   4.086 -1.0028  0.2529  0.2229
12054SOL     OW36339   5.124   3.921   7.198  0.0031  0.2908  0.0578
12054SOL    HW136340   5.181   3.988   7.150  0.9059 -0.1471  0.4950
12054SOL    HW236341   5.148   3.920   7.295 -0.4895 -0.1705  0.1815
12055SOL     OW36342   0.293   5.739   5.736  0.4247 -0.4066 -0.2352
12055SOL    HW136343   0.228   5.815   5.730  0.3553 -0.3724  0.7043
12055SOL    HW236344   0.365   5.763   5.802  0.7439 -0.9087 -0.4001
12056SOL     OW36345   4.556   0.426   7.238  0.2473  0.1208  0.4696
12056SOL    HW136346   4.507   0.494   7.182 -0.7702 -1.7466 -1.0215
12056SOL    HW236347   4.584   0.468   7.324 -0.1297  2.4830 -0.4809
12057SOL     OW36348   3.690   7.268   4.466 -0.4515  0.0867  0.2849
12057SOL    HW136349   3.597   7.296   4.445 -0.4174 -0.0112  0.0021
12057SOL    HW236350   3.747   7.349   4.482  0.2144  0.3402 -2.8536
12058SOL     OW36351   8.249   2.817   1.445 -0.5656 -0.1737  0.6330
12058SOL    HW136352   8.249   2.770   1.356 -1.8615  0.8192  0.0570
12058SOL    HW236353   8.255   2.750   1.518 -0.1858 -1.0736 -0.1981
12059SOL     OW36354   0.520   0.374   6.912 -0.8583  0.3882 -0.1599
12059SOL    HW136355   0.532   0.379   6.813  0.8975  1.9169  0.0856
12059SOL    HW236356   0.597   0.325   6.953 -0.1429  2.1252  0.6617
12060SOL     OW36357   0.697   8.087   1.432  0.1678 -0.5097 -0.5581
12060SOL    HW136358   0.720   7.992   1.413 -0.3464 -0.9853  1.0355
12060SOL    HW236359   0.597   8.096   1.440  0.2652 -0.0894  0.3950
12061SOL     OW36360   4.396   0.169   8.198 -0.8502 -0.1659  0.1519
12061SOL    HW136361   4.379   0.119   8.113  0.3896  0.9981 -0.8178
12061SOL    HW236362   4.435   0.107   8.266 -2.0385 -1.1543 -0.0348
12062SOL     OW36363   7.923   1.618   6.284  0.5337 -0.0506  0.3729
12062SOL    HW136364   7.960   1.587   6.371  1.0833 -0.6955 -0.0833
12062SOL    HW236365   7.991   1.674   6.236 -0.4643  1.9875  1.2150
12063SOL     OW36366   0.709   4.750   8.596 -0.0008 -0.6079  0.0466
12063SOL    HW136367   0.768   4.732   8.518  0.3354 -1.8369  0.5644
12063SOL    HW236368   0.714   4.847   8.620  3.0517 -0.9134  1.0317
12064SOL     OW36369   3.496   3.457   2.503 -0.7314 -0.4363  0.6034
12064SOL    HW136370   3.416   3.513   2.521 -1.2106 -0.9873  0.2175
12064SOL    HW236371   3.468   3.362   2.487 -0.1071 -0.4590 -0.5119
12065SOL     OW36372   3.683   6.498   5.307  0.7434  0.2793 -0.1117
12065SOL    HW136373   3.779   6.493   5.279  0.8773  1.2951  0.1075
12065SOL    HW236374   3.670   6.446   5.391  0.6144 -1.7035 -1.2930
12066SOL     OW36375   1.599   1.256   6.827 -0.0649 -0.2726 -0.1211
12066SOL    HW136376   1.632   1.343   6.792  0.0527 -1.1416 -2.3214
12066SOL    HW236377   1.536   1.273   6.904 -0.2748  1.7458 -0.6711
12067SOL     OW36378   0.346   7.852   4.624 -0.4725 -0.4281  0.0393
12067SOL    HW136379   0.326   7.757   4.648 -0.7973 -0.9111 -1.9436
12067SOL    HW236380   0.305   7.873   4.535  4.0886 -0.1636 -2.3014
12068SOL     OW36381   8.763   3.924   4.185  0.4238 -0.3825 -0.7957
12068SOL    HW136382   8.676   3.973   4.175 -0.6733 -1.8461  1.0401
12068SOL    HW236383   8.837   3.985   4.157 -1.1175  1.0452 -2.0790
12069SOL     OW36384   1.409   3.383   0.097  0.9695 -0.2960  0.5542
12069SOL    HW136385   1.445   3.417   0.184  3.0111 -1.3035  0.1714
12069SOL    HW236386   1.363   3.458   0.049  0.5034  0.4718  2.1329
12070SOL     OW36387   3.461   6.349   2.957 -0.1051 -0.1574 -0.2233
12070SOL    HW136388   3.498   6.257   2.950 -2.7074 -1.3448  0.4811
12070SOL    HW236389   3.362   6.345   2.973 -0.4606  2.7714 -0.9690
12071SOL     OW36390   4.163   1.731   1.763 -0.0687 -0.1672 -0.2890
12071SOL    HW136391   4.206   1.692   1.845  0.8519  1.8663  0.2728
12071SOL    HW236392   4.064   1.729   1.773  0.0385  0.4148  1.0788
12072SOL     OW36393   0.901   7.435   3.196 -0.4154  0.4352 -0.8160
12072SOL    HW136394   0.824   7.388   3.152  0.1074  1.2589 -2.7615
12072SOL    HW236395   0.962   7.471   3.125  0.1883  2.3993  0.5982
12073SOL     OW36396   3.176   7.223   6.526 -0.1026 -0.0483 -0.7600
12073SOL    HW136397   3.089   7.269   6.511  1.0151  1.8168 -2.0374
12073SOL    HW236398   3.249   7.274   6.479  1.9492 -0.4798  1.7074
12074SOL     OW36399   6.798   2.520   2.952  0.3775  0.1135  0.0624
12074SOL    HW136400   6.806   2.474   3.041  3.3885  0.5025  0.1053
12074SOL    HW236401   6.732   2.594   2.958 -0.2602 -0.5477  1.6597
12075SOL     OW36402   5.406   8.073   3.862 -0.7537 -0.5327  0.7590
12075SOL    HW136403   5.504   8.082   3.881 -0.3470 -1.6939 -0.5932
12075SOL    HW236404   5.354   8.097   3.944  0.5987  1.1911  1.1691
12076SOL     OW36405   0.396   6.667   8.248 -0.2534  0.4123  0.5909
12076SOL    HW136406   0.377   6.690   8.344  0.2328 -0.4982  0.9206
12076SOL    HW236407   0.373   6.571   8.232  2.9082 -0.4961  0.7624
12077SOL     OW36408   3.982   6.358   8.378  0.2106  0.0549 -0.0849
12077SOL    HW136409   3.965   6.433   8.313  0.0842  0.9832  0.9881
12077SOL    HW236410   4.080   6.346   8.390  0.2313  0.1153 -0.1895
12078SOL     OW36411   1.528   0.571   3.908 -0.0827  0.1818  0.3765
12078SOL    HW136412   1.542   0.475   3.886  0.5497 -0.1150  1.9573
12078SOL    HW236413   1.449   0.606   3.856  0.4360 -0.8192 -1.1608
12079SOL     OW36414   1.540   3.764   6.159  0.5532  0.0723  0.0224
12079SOL    HW136415   1.446   3.759   6.191  0.4398 -1.2163 -0.4607
12079SOL    HW236416   1.589   3.834   6.211 -0.5104  0.3838  0.6477
12080SOL     OW36417   0.382   6.758   1.120  0.5414  0.5117  0.1975
12080SOL    HW136418   0.349   6.850   1.098  1.7619  1.2566  1.3093
12080SOL    HW236419   0.375   6.743   1.219 -1.4542 -1.3585 -0.1574
12081SOL     OW36420   5.792   7.495   2.751  0.0900  0.3463  0.3824
12081SOL    HW136421   5.786   7.406   2.707 -0.9253  0.6883 -0.2285
12081SOL    HW236422   5.886   7.529   2.746  0.7257 -1.1358  1.5869
12082SOL     OW36423   8.003   1.630   7.318  0.5240  0.0040 -0.5460
12082SOL    HW136424   7.959   1.598   7.234  1.3448 -0.0142 -0.9800
12082SOL    HW236425   7.958   1.713   7.350  0.4875  0.2602 -1.2491
12083SOL     OW36426   0.111   5.605   8.544  0.7059  0.3460 -0.3811
12083SOL    HW136427   0.162   5.647   8.469  0.7727  0.5323 -0.2320
12083SOL    HW236428   0.059   5.527   8.510  0.4349  0.6649 -0.6961
12084SOL     OW36429   3.675   2.970   7.025  0.2413  0.1179 -0.0581
12084SOL    HW136430   3.639   3.064   7.021 -2.2845 -0.7924 -0.4984
12084SOL    HW236431   3.682   2.941   7.120 -1.0915  0.0247  0.0236
12085SOL     OW36432   1.197   5.673   7.930  0.3341  0.4628 -0.6266
12085SOL    HW136433   1.119   5.735   7.943  1.2933  1.7961 -0.9745
12085SOL    HW236434   1.198   5.605   8.004 -0.5328  1.0924 -0.0073
12086SOL     OW36435   0.203   7.616   6.432 -0.1212 -0.3595 -0.1080
12086SOL    HW136436   0.269   7.691   6.423 -0.1942 -0.3001 -0.1597
12086SOL    HW236437   0.111   7.655   6.441 -0.0671 -0.4174  0.7747
12087SOL     OW36438   7.319   6.374   2.421 -0.1711  0.1183 -0.5912
12087SOL    HW136439   7.368   6.312   2.482 -0.3700 -0.8734 -1.4048
12087SOL    HW236440   7.382   6.444   2.388 -0.3581  1.4636  1.7067
12088SOL     OW36441   4.234   4.788   7.785  0.2917 -0.1505  0.1474
12088SOL    HW136442   4.177   4.829   7.856 -1.3710  0.9027 -1.6981
12088SOL    HW236443   4.263   4.859   7.721 -2.3871 -1.6342 -2.9711
12089SOL     OW36444   5.048   3.176   2.797  0.0695 -0.8057 -0.1536
12089SOL    HW136445   5.036   3.099   2.859 -0.0995 -0.4679  0.2385
12089SOL    HW236446   5.095   3.145   2.715  1.5459 -0.9976  0.7221
12090SOL     OW36447   1.649   8.686   3.946 -0.3415 -0.1004  0.3889
12090SOL    HW136448   1.568   8.736   3.977 -0.5672  0.1417 -0.5678
12090SOL    HW236449   1.711   8.748   3.899  0.6283 -0.1941  1.5008
12091SOL     OW36450   4.430   0.372   4.912  0.2293 -0.4345 -0.5857
12091SOL    HW136451   4.478   0.459   4.916 -2.5705  1.1773  0.7691
12091SOL    HW236452   4.342   0.384   4.867  0.5268 -3.0425 -2.0766
12092SOL     OW36453   7.671   6.762   1.576 -0.2034  0.1006  0.4427
12092SOL    HW136454   7.580   6.803   1.586 -0.6335 -0.6007 -0.3776
12092SOL    HW236455   7.660   6.665   1.553  0.7659 -0.0433  0.5597
12093SOL     OW36456   3.057   2.104   8.125  0.8731  0.0639 -0.1725
12093SOL    HW136457   2.990   2.111   8.051  0.1587  1.5871  0.5834
12093SOL    HW236458   3.026   2.039   8.193  0.4939  0.2537 -0.1631
12094SOL     OW36459   4.873   4.915   5.784 -0.0276 -0.8778 -0.2394
12094SOL    HW136460   4.870   4.905   5.684 -4.2920  2.0818 -0.6718
12094SOL    HW236461   4.936   4.989   5.808  0.3885 -1.0382 -0.8162
12095SOL     OW36462   0.374   5.036   7.468 -0.6129 -0.4375  0.0414
12095SOL    HW136463   0.456   5.001   7.424 -0.5801  1.0852 -1.1774
12095SOL    HW236464   0.351   5.126   7.430 -0.7334  0.8848  2.9472
12096SOL     OW36465   4.535   3.499   4.950  0.0329 -0.1510 -0.0574
12096SOL    HW136466   4.452   3.553   4.935 -1.5172 -1.7358  2.0921
12096SOL    HW236467   4.517   3.403   4.928  0.0171 -1.1780  3.6969
12097SOL     OW36468   6.110   0.843   6.559  0.2055 -0.2284  0.2010
12097SOL    HW136469   6.048   0.812   6.631  0.4937 -0.3596  0.3923
12097SOL    HW236470   6.056   0.868   6.478 -0.0650 -0.8116  0.1938
12098SOL     OW36471   6.868   8.593   7.961 -0.1173 -0.1511  0.2848
12098SOL    HW136472   6.805   8.625   8.031  0.9628  0.6033  0.9523
12098SOL    HW236473   6.962   8.601   7.995  0.4922  0.9575 -1.4970
12099SOL     OW36474   6.263   4.236   7.894  0.6128 -0.2261 -0.2667
12099SOL    HW136475   6.192   4.237   7.824  0.2860  0.1527  0.0629
12099SOL    HW236476   6.343   4.188   7.860 -0.6351 -2.7891  0.1807
12100SOL     OW36477   0.934   1.261   3.105 -0.2926 -0.3435  0.1476
12100SOL    HW136478   0.966   1.215   3.023  0.6994  0.3059  0.1556
12100SOL    HW236479   0.904   1.353   3.082  0.6262  0.0840  0.5973
12101SOL     OW36480   1.136   6.403   0.705 -0.4725  0.6613 -0.0122
12101SOL    HW136481   1.068   6.386   0.777 -0.8346 -1.0581 -0.7182
12101SOL    HW236482   1.096   6.460   0.634 -0.3184  1.8281  0.8077
12102SOL     OW36483   0.337   0.947   6.758 -0.2774  0.2559  0.5186
12102SOL    HW136484   0.305   0.953   6.663 -0.2600  1.4914  0.5748
12102SOL    HW236485   0.264   0.974   6.820 -0.2505 -0.4318  0.8566
12103SOL     OW36486   5.272   2.473   8.792 -0.7591 -0.1447 -0.5783
12103SOL    HW136487   5.310   2.477   8.885 -1.0039  0.9539 -0.5046
12103SOL    HW236488   5.197   2.408   8.790 -1.2470  0.3698  0.2010
12104SOL     OW36489   3.728   5.063   6.112 -0.3546 -0.6293  0.0485
12104SOL    HW136490   3.697   5.108   6.029 -1.5044 -0.3557  0.6033
12104SOL    HW236491   3.680   4.976   6.123 -1.8012  0.2688  1.4456
12105SOL     OW36492   7.864   6.057   0.863  0.6161  0.0254 -0.1264
12105SOL    HW136493   7.884   5.960   0.873  3.3210  0.4485 -0.5321
12105SOL    HW236494   7.866   6.101   0.952 -0.7604 -0.2660  0.0759
12106SOL     OW36495   6.702   8.398   5.840  0.6353  0.2648 -0.2444
12106SOL    HW136496   6.684   8.454   5.921  0.1711  0.6796 -0.6244
12106SOL    HW236497   6.763   8.448   5.778  0.7746  0.0627 -0.2669
12107SOL     OW36498   2.790   7.686   5.144 -0.3039 -0.4092 -0.4383
12107SOL    HW136499   2.864   7.735   5.190  0.4150  0.1709 -2.1325
12107SOL    HW236500   2.711   7.746   5.136  0.0994  0.0255 -1.2826
12108SOL     OW36501   4.494   4.798   6.954  0.3322 -0.2430  0.3860
12108SOL    HW136502   4.413   4.803   7.013  0.5315  0.7671  0.5850
12108SOL    HW236503   4.510   4.887   6.911  1.0074 -0.5901 -0.1020
12109SOL     OW36504   1.994   0.548   7.981 -0.0591 -0.0830 -0.9138
12109SOL    HW136505   1.963   0.551   7.886 -2.2609  1.1037 -0.2252
12109SOL    HW236506   1.923   0.585   8.040  0.6166 -2.2224  1.3958
12110SOL     OW36507   4.065   2.049   2.530  0.5824  0.0707  0.0153
12110SOL    HW136508   4.021   2.103   2.602 -0.1312  1.3105 -1.2878
12110SOL    HW236509   4.153   2.016   2.562  0.8973  1.7480  1.0033
12111SOL     OW36510   7.846   4.707   0.058 -0.4719  0.3461  0.0794
12111SOL    HW136511   7.931   4.667   0.024 -0.0793  0.9456  0.3228
12111SOL    HW236512   7.780   4.635   0.077  0.8508 -0.3971  2.2848
12112SOL     OW36513   7.204   0.433   6.346  0.3116 -0.1222  0.1203
12112SOL    HW136514   7.226   0.457   6.252 -0.0386  0.5775  0.2121
12112SOL    HW236515   7.273   0.369   6.381  0.6081 -0.1500 -0.5061
12113SOL     OW36516   4.794   0.946   2.504 -0.6462  0.1348  0.2494
12113SOL    HW136517   4.753   0.867   2.460  0.2862 -0.4002  0.3069
12113SOL    HW236518   4.724   1.016   2.520 -0.9477  0.5329 -2.4384
12114SOL     OW36519   7.904   0.792   8.611  0.2498 -0.0910 -0.2615
12114SOL    HW136520   7.926   0.844   8.693  3.6442  2.1945 -2.3655
12114SOL    HW236521   7.961   0.710   8.607 -0.7993 -0.8652  0.1812
12115SOL     OW36522   5.886   2.614   5.302 -0.9153  0.3983  0.1773
12115SOL    HW136523   5.895   2.589   5.205  0.6153 -0.0442  0.3951
12115SOL    HW236524   5.959   2.570   5.354 -2.5523 -0.5251  1.7916
12116SOL     OW36525   1.354   0.086   4.735  0.0966 -0.2570  0.2860
12116SOL    HW136526   1.391   0.179   4.744  0.8064 -0.7326  3.6746
12116SOL    HW236527   1.258   0.086   4.760 -0.1191 -0.3345 -0.5169
12117SOL     OW36528   8.292   1.416   0.647 -0.1696  0.0395  0.3439
12117SOL    HW136529   8.373   1.359   0.631 -0.0677  0.1975  0.2813
12117SOL    HW236530   8.315   1.488   0.713 -0.6794 -0.8088  1.4698
12118SOL     OW36531   1.712   1.126   2.065 -1.0077  0.4316  0.2038
12118SOL    HW136532   1.694   1.104   2.161 -0.1238 -0.3664  0.1988
12118SOL    HW236533   1.637   1.093   2.008 -0.2941 -1.5643  0.3335
12119SOL     OW36534   6.594   8.726   2.026 -0.4715 -0.5036 -0.1357
12119SOL    HW136535   6.623   8.816   2.059  0.5563 -0.5767 -0.8044
12119SOL    HW236536   6.670   8.681   1.979 -1.2040 -1.4016 -0.4980
12120SOL     OW36537   5.274   4.223   5.002 -0.2599  0.5198  0.0761
12120SOL    HW136538   5.343   4.213   4.930 -0.6544 -1.6405 -0.0703
12120SOL    HW236539   5.199   4.279   4.969 -0.0276  0.2763 -0.9047
12121SOL     OW36540   8.645   6.394   1.501  0.1911  0.2546  0.5595
12121SOL    HW136541   8.696   6.313   1.530  0.5127 -0.2813 -1.3238
12121SOL    HW236542   8.647   6.463   1.573  1.3877 -0.7429  1.5249
12122SOL     OW36543   6.635   5.023   4.594 -0.3145 -0.3043  0.0384
12122SOL    HW136544   6.684   4.938   4.575 -0.4394 -0.1677 -0.9344
12122SOL    HW236545   6.612   5.069   4.508  0.1615  0.9617  0.5592
12123SOL     OW36546   3.899   2.603   0.059 -0.0014  1.1100 -0.0948
12123SOL    HW136547   3.904   2.597  -0.041 -1.4926 -0.4158 -0.1149
12123SOL    HW236548   3.891   2.699   0.086 -0.8794  1.4688 -1.5241
12124SOL     OW36549   2.996   8.617   2.375  0.1614  0.2248  0.2771
12124SOL    HW136550   3.042   8.616   2.463  0.4234 -0.0680  0.1396
12124SOL    HW236551   2.973   8.523   2.349 -1.0975  0.4054  0.6477
12125SOL     OW36552   4.658   1.660   7.027  0.1419  0.1335 -0.3205
12125SOL    HW136553   4.742   1.686   7.076 -0.1503  0.2700  0.1175
12125SOL    HW236554   4.644   1.561   7.034 -0.4785  0.2820  0.8319
12126SOL     OW36555   4.099   3.477   4.988 -0.3800 -0.0970  0.1299
12126SOL    HW136556   4.179   3.435   5.031 -0.8181 -1.1880 -0.0869
12126SOL    HW236557   4.083   3.434   4.899 -1.5046 -0.2708  0.3942
12127SOL     OW36558   7.905   3.458   5.576 -0.1409  0.2016  0.3154
12127SOL    HW136559   7.836   3.398   5.536  1.1772 -0.7629 -0.6259
12127SOL    HW236560   7.986   3.404   5.599  0.9318  1.5586 -0.1513
12128SOL     OW36561   7.366   4.348   2.977 -0.0661  0.1215  0.2279
12128SOL    HW136562   7.291   4.300   2.931 -0.5025  0.0691  0.9635
12128SOL    HW236563   7.362   4.445   2.956 -1.5348  0.4477  1.7614
12129SOL     OW36564   8.686   7.554   1.707 -0.4542  0.0229  0.3936
12129SOL    HW136565   8.775   7.545   1.663 -1.1315 -0.3296 -0.9388
12129SOL    HW236566   8.676   7.482   1.776  0.5538  0.4906  1.0623
12130SOL     OW36567   1.626   5.576   7.932  0.1056  0.0600 -0.4662
12130SOL    HW136568   1.663   5.484   7.921  1.3871  0.4203  0.6264
12130SOL    HW236569   1.603   5.614   7.842  1.3444 -0.6187 -1.0827
12131SOL     OW36570   5.121   2.985   8.114  0.2762 -0.9561 -0.1131
12131SOL    HW136571   5.093   2.961   8.021  0.7201  0.7232 -0.7165
12131SOL    HW236572   5.191   2.921   8.145  4.1865  1.3828 -3.1036
12132SOL     OW36573   7.779   4.177   2.364  0.0363  0.3208 -0.5631
12132SOL    HW136574   7.861   4.211   2.409  1.0629 -0.9918 -1.3755
12132SOL    HW236575   7.699   4.226   2.399  1.0744  1.1427  0.7513
12133SOL     OW36576   8.345   0.037   0.308  0.2164  0.5613  0.7972
12133SOL    HW136577   8.328  -0.048   0.359  0.3578 -0.1495 -0.3000
12133SOL    HW236578   8.429   0.027   0.255 -1.3076  0.2028 -1.6924
12134SOL     OW36579   0.337   8.042   7.569  0.0118 -0.5308 -0.0620
12134SOL    HW136580   0.393   7.990   7.634 -0.2089  1.3327  1.7198
12134SOL    HW236581   0.392   8.066   7.489  0.9368 -1.0570  0.4074
12135SOL     OW36582   7.271   2.881   8.421 -0.4647  0.9661  0.4852
12135SOL    HW136583   7.210   2.928   8.484 -1.2886 -1.2658  1.4781
12135SOL    HW236584   7.228   2.796   8.390  1.1600  0.5352 -0.7568
12136SOL     OW36585   6.192   4.540   8.472  0.0905  0.1493  0.1457
12136SOL    HW136586   6.264   4.495   8.525  1.2411 -0.0451 -1.4967
12136SOL    HW236587   6.233   4.602   8.405 -1.2521 -0.1093 -0.9728
12137SOL     OW36588   4.346   7.122   0.940  0.4660 -0.2233  0.1885
12137SOL    HW136589   4.261   7.083   0.976  0.4518 -3.1996 -2.6292
12137SOL    HW236590   4.326   7.207   0.892 -0.6392 -0.0790  0.8630
12138SOL     OW36591   0.352   2.317   5.398 -0.1074  0.6630  0.0644
12138SOL    HW136592   0.448   2.312   5.369  0.3856  1.3697  1.4702
12138SOL    HW236593   0.293   2.311   5.317  0.9819 -2.3391 -0.6503
12139SOL     OW36594   7.320   3.445   8.234 -0.4923  0.4457  0.2073
12139SOL    HW136595   7.266   3.397   8.164  0.4782 -0.4644  0.0563
12139SOL    HW236596   7.267   3.450   8.319 -0.5737 -1.0608  0.2731
12140SOL     OW36597   0.821   8.472   2.854 -0.2712  0.2099  0.0736
12140SOL    HW136598   0.735   8.493   2.808 -1.0775 -0.8976  1.0118
12140SOL    HW236599   0.849   8.379   2.831  0.5476  0.4665 -0.0023
12141SOL     OW36600   2.856   5.268   6.241 -0.8231  0.5611  0.9485
12141SOL    HW136601   2.836   5.347   6.299 -0.1554  1.5102 -0.0748
12141SOL    HW236602   2.775   5.245   6.187 -0.2255  2.3982 -0.8616
12142SOL     OW36603   3.492   3.944   3.621 -0.2335  0.0722 -0.4997
12142SOL    HW136604   3.519   3.850   3.644  0.9407  0.8975  1.7483
12142SOL    HW236605   3.566   3.988   3.570 -0.0351  0.3444  0.0272
12143SOL     OW36606   5.800   6.799   6.076  0.2996  0.2581  0.3879
12143SOL    HW136607   5.899   6.807   6.074  0.5258 -1.7195 -3.0584
12143SOL    HW236608   5.760   6.859   6.006 -0.5539 -1.9280 -1.0842
12144SOL     OW36609   0.183   2.328   0.343  0.1624  0.2264  0.2632
12144SOL    HW136610   0.246   2.310   0.419 -0.1935 -0.4422  0.4068
12144SOL    HW236611   0.127   2.247   0.326  0.2194  0.3780 -0.7063
12145SOL     OW36612   0.938   6.636   6.663 -0.2886 -0.1537  0.3450
12145SOL    HW136613   0.957   6.568   6.592 -1.6500  0.5058 -0.7075
12145SOL    HW236614   1.009   6.706   6.662 -0.5802  0.1477 -0.7734
12146SOL     OW36615   3.576   1.671   4.753  0.0495 -0.0874 -0.3663
12146SOL    HW136616   3.506   1.638   4.815  0.4775  0.0399  0.1901
12146SOL    HW236617   3.556   1.639   4.660 -0.5366 -0.3605 -0.1513
12147SOL     OW36618   4.082   7.113   3.445  0.2809  0.0997 -0.7964
12147SOL    HW136619   4.157   7.111   3.378 -0.5920 -2.7171 -1.8492
12147SOL    HW236620   4.060   7.207   3.469  3.1516  1.0623 -1.5639
12148SOL     OW36621   6.972   0.215   8.688  0.2366  0.0599 -0.0831
12148SOL    HW136622   6.987   0.312   8.671  1.5337 -0.3048 -1.2109
12148SOL    HW236623   7.060   0.167   8.689 -0.3364 -1.0291  1.0089
12149SOL     OW36624   8.116   7.775   3.758  0.1236  0.0415  0.1304
12149SOL    HW136625   8.168   7.812   3.681 -0.3664  0.7466  0.1337
12149SOL    HW236626   8.041   7.718   3.723  0.5091 -0.4660  0.1146
12150SOL     OW36627   6.151   4.254   0.914  1.0719  0.0433  0.2863
12150SOL    HW136628   6.069   4.284   0.963  1.4667  3.2066 -0.7429
12150SOL    HW236629   6.126   4.189   0.842 -0.1764 -0.7276  1.3742
12151SOL     OW36630   4.691   2.996   7.023 -0.1220  0.2551 -0.3102
12151SOL    HW136631   4.704   3.079   6.969 -1.5325  0.8436  0.2005
12151SOL    HW236632   4.598   2.995   7.060 -0.2705 -1.7814 -0.6725
12152SOL     OW36633   1.960   5.598   6.293  0.0405  0.1305  0.0524
12152SOL    HW136634   1.967   5.638   6.385  1.6458  1.7172 -0.6931
12152SOL    HW236635   1.868   5.612   6.257  0.0625  1.6418  0.5156
12153SOL     OW36636   3.977   8.397   7.068  0.0875 -0.1505  0.6185
12153SOL    HW136637   4.043   8.357   7.132 -0.1886  0.0922  1.0567
12153SOL    HW236638   3.888   8.352   7.080  0.1584 -0.4542  0.0524
12154SOL     OW36639   0.675   0.401   2.649 -0.1803  0.1263 -0.3554
12154SOL    HW136640   0.580   0.434   2.645 -0.7969 -1.6220 -2.4192
12154SOL    HW236641   0.706   0.379   2.556  0.6776 -3.4036  0.6228
12155SOL     OW36642   7.168   1.053   8.671 -0.5094 -0.6229 -0.2597
12155SOL    HW136643   7.250   0.998   8.658  0.5419  0.6739  0.6814
12155SOL    HW236644   7.133   1.081   8.581  0.6447 -0.3911 -0.6599
12156SOL     OW36645   5.666   7.723   3.309 -0.5894  0.0665  0.2341
12156SOL    HW136646   5.763   7.710   3.290 -0.9185 -0.6989 -1.0251
12156SOL    HW236647   5.627   7.786   3.242 -0.6439  1.6608  1.7058
12157SOL     OW36648   5.116   5.221   6.113  0.0948 -0.2049 -0.2183
12157SOL    HW136649   5.168   5.149   6.159 -0.5133 -0.1205  0.6271
12157SOL    HW236650   5.108   5.301   6.173  2.7281  1.5218 -1.9798
12158SOL     OW36651   4.850   3.469   4.155  0.0270  0.0368  0.2995
12158SOL    HW136652   4.806   3.380   4.168 -1.7406  0.8202  0.1157
12158SOL    HW236653   4.907   3.466   4.073  0.0690 -0.9600  0.3508
12159SOL     OW36654   8.069   7.632   6.031 -0.5807  0.3882 -0.2321
12159SOL    HW136655   8.066   7.623   5.931 -2.0183  0.5016 -0.2182
12159SOL    HW236656   7.987   7.590   6.070  0.4812 -0.6102  0.9943
12160SOL     OW36657   3.552   3.673   3.571 -0.5807 -0.1425  0.7952
12160SOL    HW136658   3.538   3.578   3.599  0.2152 -1.3732 -2.5432
12160SOL    HW236659   3.515   3.687   3.479  0.3246  2.5050  0.7354
12161SOL     OW36660   1.185   8.492   4.089  0.1844 -0.5265  0.6993
12161SOL    HW136661   1.233   8.569   4.131 -0.7093  0.8769 -0.7065
12161SOL    HW236662   1.130   8.525   4.012 -0.0627 -2.6233 -0.1033
12162SOL     OW36663   1.611   1.896   1.149 -0.1509  0.0281 -0.2426
12162SOL    HW136664   1.598   1.957   1.070  0.6158  2.3083  1.2873
12162SOL    HW236665   1.690   1.837   1.132  0.9839  1.5608 -0.6465
12163SOL     OW36666   4.864   5.467   4.239 -0.2328 -0.1879  0.1329
12163SOL    HW136667   4.813   5.465   4.153 -1.5541  0.1519  0.8926
12163SOL    HW236668   4.932   5.541   4.236 -0.4732  0.0134 -0.4963
12164SOL     OW36669   5.978   0.023   8.268  0.1768  0.1156 -0.1858
12164SOL    HW136670   5.897   0.080   8.257  1.1611  1.6971  0.4844
12164SOL    HW236671   5.952  -0.064   8.311 -1.0498  0.9066  0.7278
12165SOL     OW36672   0.883   4.642   6.132 -0.2537  0.1429  0.3887
12165SOL    HW136673   0.948   4.658   6.058  1.2207 -2.8661  0.8803
12165SOL    HW236674   0.838   4.553   6.120  0.0986 -0.4968  3.0767
12166SOL     OW36675   2.079   5.430   6.715  0.2356 -0.4859  0.4717
12166SOL    HW136676   2.065   5.332   6.733 -1.5524  0.1110  2.7217
12166SOL    HW236677   1.991   5.473   6.696  0.8185  0.9467  0.8821
12167SOL     OW36678   6.640   0.263   7.224 -0.3455  0.3137 -0.0527
12167SOL    HW136679   6.576   0.313   7.284 -1.5268  0.7348 -1.6011
12167SOL    HW236680   6.682   0.189   7.276 -0.1035  1.6347  1.7387
12168SOL     OW36681   1.144   5.169   7.028 -0.2771  0.1338 -0.5439
12168SOL    HW136682   1.070   5.114   6.990 -1.1098  1.0162 -0.2388
12168SOL    HW236683   1.175   5.235   6.959 -1.0214  0.9734 -0.1040
12169SOL     OW36684   1.294   1.008   2.081 -0.0207 -0.6086 -0.0293
12169SOL    HW136685   1.375   0.987   2.026 -0.7575  0.1830 -1.4747
12169SOL    HW236686   1.225   1.052   2.024 -1.4363 -1.1229  1.2033
12170SOL     OW36687   4.078   5.257   2.410  0.7395  0.0649 -0.1353
12170SOL    HW136688   4.034   5.196   2.475  0.7363 -0.6070 -0.7522
12170SOL    HW236689   4.101   5.343   2.455  0.2527 -0.1842  0.6049
12171SOL     OW36690   6.380   2.282   8.216  1.0781  0.3515 -0.7024
12171SOL    HW136691   6.340   2.192   8.198  1.0654  0.3414 -0.6250
12171SOL    HW236692   6.445   2.274   8.292 -1.3033  1.0028  1.5533
12172SOL     OW36693   1.540   4.343   1.296 -0.2192 -0.3767  0.1059
12172SOL    HW136694   1.501   4.424   1.339 -1.2254 -1.1937  0.8089
12172SOL    HW236695   1.626   4.320   1.341  0.5859  0.8417 -0.7564
12173SOL     OW36696   0.677   7.209   2.502  0.5161  0.3930  0.0378
12173SOL    HW136697   0.677   7.306   2.475 -0.8163  1.0375  2.0834
12173SOL    HW236698   0.749   7.193   2.569 -0.9687  0.6905  1.7854
12174SOL     OW36699   3.988   5.300   8.258 -0.8451 -0.1533  0.2626
12174SOL    HW136700   3.899   5.256   8.267 -1.5005  1.2588  0.9616
12174SOL    HW236701   4.054   5.235   8.220 -1.6113 -1.9258  1.7947
12175SOL     OW36702   3.371   1.309   5.215 -0.2512  0.0899 -0.5885
12175SOL    HW136703   3.461   1.321   5.174  0.4865 -1.0313  0.6074
12175SOL    HW236704   3.373   1.341   5.310  0.0247 -3.2556  0.6741
12176SOL     OW36705   3.166   6.846   5.680 -0.0804 -0.2227 -0.1605
12176SOL    HW136706   3.100   6.776   5.707 -2.2012  1.5062 -0.5844
12176SOL    HW236707   3.147   6.931   5.730  0.7531  0.8197 -1.5472
12177SOL     OW36708   2.210   6.412   8.490  0.2698 -0.3187 -0.4515
12177SOL    HW136709   2.304   6.379   8.482 -0.3702 -2.4773  0.2089
12177SOL    HW236710   2.163   6.398   8.403 -0.2607 -2.1452  0.0896
12178SOL     OW36711   1.348   7.545   7.186 -0.2097 -0.0960  0.2185
12178SOL    HW136712   1.345   7.477   7.114 -2.1629 -0.4832  0.6051
12178SOL    HW236713   1.377   7.502   7.272 -0.9651 -0.3640  0.3510
12179SOL     OW36714   0.788   1.897   5.342  0.1611 -0.6631  0.0835
12179SOL    HW136715   0.728   1.955   5.287 -0.6783 -1.1905  0.4165
12179SOL    HW236716   0.878   1.939   5.350 -0.1927  0.1898 -0.3563
12180SOL     OW36717   6.663   6.077   2.160 -0.3391 -0.4003 -0.0965
12180SOL    HW136718   6.741   6.037   2.112  0.1922 -1.4026  1.5453
12180SOL    HW236719   6.609   6.132   2.095  0.1056 -2.0176 -1.9243
12181SOL     OW36720   3.482   4.140   3.815  0.5327  0.0308  0.0191
12181SOL    HW136721   3.398   4.189   3.792  0.3366  0.3401  1.3011
12181SOL    HW236722   3.500   4.070   3.746 -0.7668 -0.0257 -0.2860
12182SOL     OW36723   3.811   8.784   7.527 -0.0450  0.2628 -0.2233
12182SOL    HW136724   3.845   8.875   7.548  0.2803 -0.0052  0.4750
12182SOL    HW236725   3.715   8.778   7.554  0.2344  0.0754  0.7956
12183SOL     OW36726   6.655   2.904   2.511 -0.2627  0.3739  0.7214
12183SOL    HW136727   6.698   2.964   2.444  0.8444 -1.0697  0.0797
12183SOL    HW236728   6.559   2.928   2.522 -0.7680 -0.0010 -2.2076
12184SOL     OW36729   7.895   1.560   7.058 -0.6271 -0.0730 -0.1505
12184SOL    HW136730   7.859   1.481   7.009  1.9319 -0.2334 -1.9830
12184SOL    HW236731   7.942   1.620   6.994  1.6136  0.4651  1.8625
12185SOL     OW36732   4.536   8.034   5.912  0.4543  0.8320  0.2182
12185SOL    HW136733   4.525   7.935   5.900  1.4098  0.8880 -1.5308
12185SOL    HW236734   4.455   8.081   5.878  0.3289  0.6690  0.2957
12186SOL     OW36735   2.029   8.705   6.487  0.1872  0.1086  0.2496
12186SOL    HW136736   1.933   8.730   6.473  0.6877  1.8195 -0.4188
12186SOL    HW236737   2.088   8.780   6.456  1.7655 -1.0713  0.2691
12187SOL     OW36738   3.620   2.292   6.481 -0.1971  0.1836  0.6335
12187SOL    HW136739   3.539   2.299   6.422 -0.3623 -0.1596  0.8146
12187SOL    HW236740   3.650   2.197   6.486  0.7381  0.4283 -0.1119
12188SOL     OW36741   4.050   0.123   5.570 -0.5325  0.3636 -0.2630
12188SOL    HW136742   4.041   0.031   5.533  0.3465  0.1107  0.1325
12188SOL    HW236743   4.092   0.183   5.502  0.3831  0.0798  0.0403
12189SOL     OW36744   0.599   8.328   3.732 -0.4822 -0.0621  0.1888
12189SOL    HW136745   0.587   8.427   3.744 -1.5671 -0.2758  1.0063
12189SOL    HW236746   0.568   8.302   3.641 -0.7452  0.2739  0.1762
12190SOL     OW36747   2.631   2.453   7.343 -0.4452 -0.1624 -0.6219
12190SOL    HW136748   2.658   2.545   7.372  0.3162 -0.5480 -0.0566
12190SOL    HW236749   2.662   2.437   7.250 -0.8327  0.2497 -0.8259
12191SOL     OW36750   5.894   8.175   3.450  0.3726  0.2730 -0.3611
12191SOL    HW136751   5.972   8.114   3.460 -1.2765 -1.9798 -0.6147
12191SOL    HW236752   5.911   8.238   3.373  1.9457 -0.0973 -0.3486
12192SOL     OW36753   5.499   8.011   3.448  0.1843  0.3122 -0.1876
12192SOL    HW136754   5.465   7.960   3.369 -2.2228  2.2850 -0.5402
12192SOL    HW236755   5.551   8.090   3.417  1.2985 -0.2039  0.2968
12193SOL     OW36756   1.862   4.732   4.637 -0.1906 -0.0192  0.0798
12193SOL    HW136757   1.831   4.643   4.672  0.2238 -1.0652 -2.0566
12193SOL    HW236758   1.847   4.735   4.538 -1.6252  2.9240  0.2928
12194SOL     OW36759   8.095   2.587   6.082 -0.1719  0.3106  0.6725
12194SOL    HW136760   8.188   2.624   6.081 -0.7107  1.7168 -0.3160
12194SOL    HW236761   8.092   2.505   6.024  0.2935  0.6749  0.1212
12195SOL     OW36762   8.281   4.533   5.075 -0.5494 -0.4003  0.0426
12195SOL    HW136763   8.188   4.571   5.070 -0.0582  0.7594 -0.7608
12195SOL    HW236764   8.347   4.607   5.061  0.5158 -1.1221  1.1153
12196SOL     OW36765   4.071   3.681   3.602  0.3087 -0.1159 -0.6372
12196SOL    HW136766   4.135   3.605   3.615  0.6422  0.2024 -0.3804
12196SOL    HW236767   3.977   3.649   3.615  0.5679  0.0580  2.1838
12197SOL     OW36768   5.413   1.268   3.605 -0.1184 -0.1625  0.0033
12197SOL    HW136769   5.343   1.199   3.621 -0.2182 -0.5133 -1.8132
12197SOL    HW236770   5.395   1.347   3.664 -0.8713 -1.0503  1.0036
12198SOL     OW36771   4.189   8.700   2.512 -0.6697 -0.4145 -0.4687
12198SOL    HW136772   4.120   8.679   2.581 -0.3581 -0.6877 -0.2400
12198SOL    HW236773   4.263   8.633   2.516  0.0765  0.4142 -0.0938
12199SOL     OW36774   6.151   1.853   2.798 -0.0467 -0.1381  0.1541
12199SOL    HW136775   6.162   1.870   2.896  2.5521  0.4557 -0.1630
12199SOL    HW236776   6.095   1.771   2.785  1.1790 -1.4099  2.2212
12200SOL     OW36777   3.472   0.307   8.174  0.3300 -0.1992 -0.1243
12200SOL    HW136778   3.570   0.322   8.183  0.1689  1.3248 -0.5470
12200SOL    HW236779   3.455   0.213   8.145  1.7455 -0.1935 -1.0929
12201SOL     OW36780   0.269   0.141   8.263  0.0915 -0.0128  0.0633
12201SOL    HW136781   0.207   0.218   8.248  0.4915  0.6323  1.5106
12201SOL    HW236782   0.263   0.112   8.359  1.0999 -0.7616 -0.0868
12202SOL     OW36783   8.270   7.011   3.296 -0.3572 -0.0385  0.5461
12202SOL    HW136784   8.320   7.077   3.352  0.8016 -0.1017 -0.3718
12202SOL    HW236785   8.213   7.059   3.230  0.4803  0.0684 -0.1170
12203SOL     OW36786   5.261   1.792   5.175  0.4500  0.3109 -0.2207
12203SOL    HW136787   5.261   1.694   5.152  1.2850  0.4450 -0.8467
12203SOL    HW236788   5.332   1.811   5.242 -0.7514  0.2398  1.1005
12204SOL     OW36789   8.162   4.357   3.350  0.7067  0.0706 -0.0167
12204SOL    HW136790   8.147   4.272   3.299 -1.0040  0.3737 -0.0522
12204SOL    HW236791   8.109   4.356   3.435 -1.9068  2.3149 -1.4527
12205SOL     OW36792   4.753   5.920   8.027 -0.7001  0.1602 -0.3137
12205SOL    HW136793   4.789   6.002   8.071 -1.2771  0.1751  0.1440
12205SOL    HW236794   4.675   5.886   8.079  0.7921 -1.8907  0.6773
12206SOL     OW36795   0.118   6.659   3.684  0.3025  0.2902  0.5177
12206SOL    HW136796   0.215   6.632   3.681  0.1942  0.0098 -0.6702
12206SOL    HW236797   0.107   6.750   3.645  0.1131  0.4501  0.9287
12207SOL     OW36798   0.998   8.703   4.384 -0.1801  0.5365  0.0074
12207SOL    HW136799   0.941   8.671   4.309  0.5468 -0.3806 -0.1737
12207SOL    HW236800   1.030   8.796   4.365  0.4760  0.0957 -1.1090
12208SOL     OW36801   3.397   5.822   5.479 -0.2662  0.5049  0.3078
12208SOL    HW136802   3.479   5.875   5.502 -0.7261  0.5378  2.0711
12208SOL    HW236803   3.329   5.834   5.552 -0.4246 -2.4543  0.7513
12209SOL     OW36804   7.287   6.496   4.061 -0.2894 -0.1870 -0.9298
12209SOL    HW136805   7.361   6.549   4.102  0.4920 -1.0094 -1.2305
12209SOL    HW236806   7.305   6.399   4.076 -0.9400 -0.4170 -1.6352
12210SOL     OW36807   5.241   0.916   0.634  0.5024  0.2958 -0.0498
12210SOL    HW136808   5.224   0.821   0.607  1.5485  0.2545 -0.6050
12210SOL    HW236809   5.168   0.947   0.695  0.7584 -1.2532  1.1057
12211SOL     OW36810   3.671   4.764   3.717 -0.5728 -0.1561 -0.0681
12211SOL    HW136811   3.650   4.861   3.700 -0.5980 -0.3368 -1.1206
12211SOL    HW236812   3.739   4.733   3.651 -0.4112 -0.8053  0.4021
12212SOL     OW36813   1.836   0.815   6.264  0.1826 -0.0088 -0.4864
12212SOL    HW136814   1.923   0.771   6.284  0.5201  0.6248 -0.5570
12212SOL    HW236815   1.838   0.856   6.173  0.3589  1.3012  0.0746
12213SOL     OW36816   3.806   0.894   8.015 -0.1042  0.2231 -0.4189
12213SOL    HW136817   3.905   0.912   8.021 -0.2277  0.8329 -0.1561
12213SOL    HW236818   3.783   0.815   8.071  0.8180 -2.3616 -3.3529
12214SOL     OW36819   2.267   6.194   8.692  0.2629 -0.2360  0.6160
12214SOL    HW136820   2.287   6.285   8.657 -0.9616 -0.4049 -0.5953
12214SOL    HW236821   2.218   6.201   8.779  0.1542  0.2538  0.5133
12215SOL     OW36822   8.456   6.644   2.195  0.4359 -0.2456  0.5006
12215SOL    HW136823   8.452   6.551   2.160  0.3030 -0.1915  0.3702
12215SOL    HW236824   8.544   6.685   2.173 -0.6283  0.7686 -2.2838
12216SOL     OW36825   2.579   2.152   7.005 -0.0646  0.2443 -0.3090
12216SOL    HW136826   2.611   2.131   6.913  0.3189  1.0300 -0.3704
12216SOL    HW236827   2.606   2.246   7.028 -1.0281  0.3996  0.2181
12217SOL     OW36828   1.896   3.505   2.027 -0.5112  0.5755  0.1263
12217SOL    HW136829   1.917   3.537   1.934 -1.6328  2.5370  0.5068
12217SOL    HW236830   1.972   3.448   2.060  0.2233  0.4130 -1.7164
12218SOL     OW36831   2.715   5.923   2.462  0.0772  0.1374  0.3489
12218SOL    HW136832   2.752   5.928   2.370 -1.1776 -0.9246 -0.2384
12218SOL    HW236833   2.684   5.830   2.481 -0.8469  0.6265  1.3765
12219SOL     OW36834   4.276   7.292   1.879 -0.7012  0.1608 -0.0168
12219SOL    HW136835   4.240   7.326   1.792 -0.9434 -1.0955 -0.4308
12219SOL    HW236836   4.285   7.192   1.875  0.0346  0.1587  1.1280
12220SOL     OW36837   2.519   6.751   8.284 -0.1509 -0.0878 -0.1685
12220SOL    HW136838   2.468   6.673   8.248 -0.8195  0.2077  0.1170
12220SOL    HW236839   2.457   6.829   8.294  0.7756  0.9255 -1.7691
12221SOL     OW36840   0.753   7.014   7.984 -0.4275  0.0338  0.3521
12221SOL    HW136841   0.791   7.090   7.931  1.0461 -0.2269  0.9874
12221SOL    HW236842   0.687   6.964   7.928 -0.0137  0.6517 -0.7215
12222SOL     OW36843   0.480   8.445   3.249 -0.0421  0.4215  0.2838
12222SOL    HW136844   0.392   8.464   3.204 -0.3556  0.0115  0.7192
12222SOL    HW236845   0.553   8.454   3.182 -0.4691  0.2047 -0.2240
12223SOL     OW36846   2.967   7.812   2.686 -0.2694 -0.1169  0.2610
12223SOL    HW136847   3.012   7.844   2.603 -0.1235  1.3165  0.8723
12223SOL    HW236848   2.984   7.876   2.760 -1.7971 -0.4858  0.9700
12224SOL     OW36849   0.822   4.816   0.643 -0.0808  0.2481  0.5107
12224SOL    HW136850   0.731   4.802   0.603  0.1334  0.3058 -0.0169
12224SOL    HW236851   0.889   4.764   0.590  0.0390 -0.7976  1.6438
12225SOL     OW36852   2.606   1.573   2.764  0.4170 -0.8183  0.4957
12225SOL    HW136853   2.521   1.537   2.803  0.7260 -1.7341  0.3528
12225SOL    HW236854   2.646   1.639   2.827 -1.6455  1.5282 -0.4979
12226SOL     OW36855   5.465   4.103   2.258 -0.1272 -0.0354  0.3568
12226SOL    HW136856   5.495   4.127   2.166 -0.3795  1.9295  0.7449
12226SOL    HW236857   5.379   4.151   2.279  0.1143 -0.1536  1.7457
12227SOL     OW36858   2.313   4.364   6.198  0.0382  0.0202 -0.7167
12227SOL    HW136859   2.257   4.308   6.137  1.7541  0.0621 -2.4398
12227SOL    HW236860   2.372   4.305   6.253  0.3605  0.0382 -1.0331
12228SOL     OW36861   2.916   7.915   8.201 -0.1825 -0.1328  0.7739
12228SOL    HW136862   3.016   7.913   8.205 -0.2418 -1.8356  2.5612
12228SOL    HW236863   2.881   7.827   8.171 -1.1823  0.2527  0.7516
12229SOL     OW36864   4.721   6.212   0.789  0.0934  0.2448  0.2276
12229SOL    HW136865   4.624   6.191   0.802  0.0866  0.2550  0.1921
12229SOL    HW236866   4.749   6.181   0.698  0.2588 -0.2689  0.4474
12230SOL     OW36867   4.640   7.529   7.746  0.2087  0.1533 -0.2431
12230SOL    HW136868   4.651   7.568   7.837  1.4193  1.0609 -0.7621
12230SOL    HW236869   4.603   7.436   7.754  1.5480 -0.2877  1.2526
12231SOL     OW36870   6.868   3.946   5.982 -0.1423 -0.2759 -0.6310
12231SOL    HW136871   6.836   3.897   6.063 -0.7501 -0.1081 -0.7645
12231SOL    HW236872   6.792   3.960   5.919 -0.0527  1.0954 -0.4682
12232SOL     OW36873   4.996   1.824   6.063  0.1112 -0.0422 -0.1661
12232SOL    HW136874   4.943   1.822   6.148 -0.6556  0.8665 -0.6044
12232SOL    HW236875   4.954   1.764   5.995  1.1278 -1.3233  0.3043
12233SOL     OW36876   5.702   8.850   8.850  0.3187 -0.8985  0.5777
12233SOL    HW136877   5.648   8.930   8.874  0.5370 -1.0204  1.5122
12233SOL    HW236878   5.675   8.817   8.760  1.0501  0.9427 -0.3788
12234SOL     OW36879   8.810   8.599   4.825  0.6079  0.2774 -0.1928
12234SOL    HW136880   8.786   8.608   4.922 -0.8527  0.9812 -0.6022
12234SOL    HW236881   8.733   8.562   4.774  1.7009 -1.0528 -0.9567
12235SOL     OW36882   2.405   4.591   3.436 -0.0835 -0.2700 -0.0157
12235SOL    HW136883   2.310   4.562   3.420  0.3248 -1.3083 -0.6636
12235SOL    HW236884   2.464   4.553   3.366  0.6225  1.6326 -0.5189
12236SOL     OW36885   3.321   6.224   1.858  0.4029  0.7251 -0.7112
12236SOL    HW136886   3.300   6.134   1.819 -0.8068  0.7048 -0.0501
12236SOL    HW236887   3.412   6.222   1.899  0.1071 -0.4282 -0.0639
12237SOL     OW36888   5.112   3.435   5.946  0.0824  0.0432  0.1881
12237SOL    HW136889   5.019   3.469   5.934 -0.4701 -0.5630  2.2709
12237SOL    HW236890   5.127   3.358   5.884 -1.2114 -0.5514  0.5625
12238SOL     OW36891   3.715   5.514   5.686  0.4178 -0.4129  0.2838
12238SOL    HW136892   3.751   5.422   5.697 -0.2208 -0.5576  1.2119
12238SOL    HW236893   3.725   5.565   5.772  0.0998  0.1414  0.0015
12239SOL     OW36894   3.399   5.005   6.627  0.4356  0.4158 -0.5515
12239SOL    HW136895   3.464   5.002   6.552  0.2256 -0.2945 -0.7137
12239SOL    HW236896   3.444   4.977   6.712 -0.1030 -2.0622 -1.0148
12240SOL     OW36897   7.162   0.119   6.569  0.1330 -0.2639 -0.1970
12240SOL    HW136898   7.158   0.076   6.479 -0.8455 -0.4312 -0.0875
12240SOL    HW236899   7.073   0.160   6.590  0.6965  0.7953  0.1953
12241SOL     OW36900   4.576   2.774   8.097 -0.8124  1.0319  0.3828
12241SOL    HW136901   4.558   2.704   8.028  1.6721 -0.8289  1.4741
12241SOL    HW236902   4.548   2.863   8.061 -2.1320 -0.2003 -1.9023
12242SOL     OW36903   1.262   8.429   6.468 -0.0461 -0.0330 -0.2808
12242SOL    HW136904   1.223   8.379   6.391 -1.3153 -2.1322  1.5958
12242SOL    HW236905   1.203   8.507   6.491 -1.0414 -0.8598  0.0570
12243SOL     OW36906   6.636   3.573   5.093 -0.2434  0.1571  0.3902
12243SOL    HW136907   6.720   3.521   5.075  0.0998  0.9208 -0.2729
12243SOL    HW236908   6.557   3.515   5.076  0.1406 -0.6376  1.2180
12244SOL     OW36909   6.848   0.090   0.288 -0.4113  1.2987  0.2614
12244SOL    HW136910   6.833   0.164   0.353 -1.5449  2.0908 -0.8624
12244SOL    HW236911   6.930   0.109   0.235  0.0263  1.0808  0.8416
12245SOL     OW36912   5.977   3.040   7.265  0.4380 -0.2719 -0.2342
12245SOL    HW136913   5.878   3.040   7.256  0.4428 -0.1899 -0.2876
12245SOL    HW236914   6.003   3.076   7.354  0.4227 -0.2134 -0.2535
12246SOL     OW36915   7.858   0.351   1.007  0.1638 -0.3029 -0.4094
12246SOL    HW136916   7.807   0.348   1.093  2.6794 -1.7791  1.1789
12246SOL    HW236917   7.860   0.260   0.967 -0.7334  0.3169 -1.9231
12247SOL     OW36918   8.210   8.530   3.947 -0.2473 -0.2242  0.2844
12247SOL    HW136919   8.256   8.613   3.914  1.1335 -0.3301  1.8337
12247SOL    HW236920   8.275   8.454   3.950 -0.6869 -0.5796  1.7676
12248SOL     OW36921   6.987   4.886   4.686  0.2494  0.3324  0.7793
12248SOL    HW136922   6.935   4.922   4.763  2.8771  0.3480  2.6812
12248SOL    HW236923   7.070   4.842   4.720  0.3401 -1.8068 -1.9280
12249SOL     OW36924   0.310   7.318   1.905  0.2840 -0.3761  0.0071
12249SOL    HW136925   0.382   7.299   1.971 -0.1134 -1.1177  0.2449
12249SOL    HW236926   0.342   7.385   1.839  0.7280  0.2823  0.8753
12250SOL     OW36927   0.235   4.916   2.638 -0.0540 -0.1149 -0.1946
12250SOL    HW136928   0.312   4.951   2.584 -0.0266  2.4594  1.3906
12250SOL    HW236929   0.260   4.913   2.735 -2.0477  1.1654  0.4201
12251SOL     OW36930   7.507   3.777   6.283  0.2388 -0.0221  0.5375
12251SOL    HW136931   7.512   3.678   6.297  3.0326 -0.2426 -1.4110
12251SOL    HW236932   7.585   3.821   6.327  1.4098  0.7746 -2.1624
12252SOL     OW36933   4.366   0.225   3.917 -0.0523 -0.1515  0.1745
12252SOL    HW136934   4.416   0.290   3.861  0.5917 -0.7203  0.0735
12252SOL    HW236935   4.382   0.132   3.883  1.1880 -0.6112  1.8995
12253SOL     OW36936   1.026   0.241   1.239 -0.4860 -1.0622  0.8861
12253SOL    HW136937   1.058   0.195   1.156 -0.6861 -1.4150  1.0009
12253SOL    HW236938   1.072   0.201   1.318 -0.7360 -1.1337  0.9963
12254SOL     OW36939   6.328   0.415   2.929 -0.0730  0.3633 -0.2793
12254SOL    HW136940   6.407   0.465   2.894 -0.3647  1.1686  0.1807
12254SOL    HW236941   6.254   0.479   2.949  0.0053 -0.0855  1.5857
12255SOL     OW36942   1.077   5.849   3.405  0.0621  0.4150 -0.5015
12255SOL    HW136943   1.140   5.900   3.346  0.2271  0.1433 -0.5599
12255SOL    HW236944   1.048   5.908   3.480  1.6801  0.0450  0.4708
12256SOL     OW36945   2.288   3.560   7.914  0.1579  0.2227 -0.2270
12256SOL    HW136946   2.211   3.506   7.881  0.1787 -0.3215  0.5754
12256SOL    HW236947   2.372   3.505   7.911  0.1775  0.1838  0.6004
12257SOL     OW36948   1.326   4.498   6.336  0.9171 -0.0741  0.1274
12257SOL    HW136949   1.232   4.525   6.319  0.8611  0.6912  1.5329
12257SOL    HW236950   1.327   4.408   6.381  0.8660 -0.0807  0.1151
12258SOL     OW36951   3.116   4.304   3.269 -0.4521 -0.2428  0.1248
12258SOL    HW136952   3.149   4.209   3.272  1.1257  0.2506 -0.9520
12258SOL    HW236953   3.169   4.356   3.203 -1.6607  1.2878  0.3089
12259SOL     OW36954   3.028   7.076   3.517  0.3792 -0.7521 -0.7679
12259SOL    HW136955   2.941   7.028   3.526 -0.5026  0.8689 -0.3035
12259SOL    HW236956   3.081   7.036   3.443 -1.5668 -0.6066 -2.3223
12260SOL     OW36957   3.113   3.671   1.671  0.5998  0.5660  0.4065
12260SOL    HW136958   3.078   3.615   1.596  0.5421  0.2805  0.6425
12260SOL    HW236959   3.149   3.611   1.743 -2.4370  0.6558  2.1611
12261SOL     OW36960   0.683   6.022   0.359 -0.3016 -0.8247  0.0813
12261SOL    HW136961   0.650   6.006   0.452 -0.8822  0.5085  0.1242
12261SOL    HW236962   0.605   6.022   0.296  0.0461 -1.3135 -0.3643
12262SOL     OW36963   8.359   3.031   1.939  0.1223  0.8427  0.0030
12262SOL    HW136964   8.387   2.992   2.026  0.5997  1.7189  0.2506
12262SOL    HW236965   8.439   3.064   1.889 -0.1804  0.6656 -0.6069
12263SOL     OW36966   2.527   6.978   3.554  0.6737  0.0129 -0.2221
12263SOL    HW136967   2.511   7.058   3.497  0.0087  0.6559  0.8435
12263SOL    HW236968   2.440   6.942   3.587  0.8983 -1.5740 -1.2082
12264SOL     OW36969   2.127   6.350   3.116  0.4179  0.2360 -0.2947
12264SOL    HW136970   2.085   6.365   3.027 -1.1376  0.4949  0.4340
12264SOL    HW236971   2.147   6.439   3.159  0.6007  0.1215 -0.1397
12265SOL     OW36972   5.908   4.042   6.635 -0.5752  0.4313  0.0805
12265SOL    HW136973   5.989   4.081   6.681  0.5158  0.0021 -1.4021
12265SOL    HW236974   5.858   4.115   6.588 -0.4646  0.5424  0.1335
12266SOL     OW36975   1.652   5.735   4.846 -0.1132 -0.0516 -0.0451
12266SOL    HW136976   1.683   5.689   4.929 -2.9449  0.7988  1.5994
12266SOL    HW236977   1.707   5.818   4.831 -0.0374  0.1831  1.4106
12267SOL     OW36978   6.248   5.651   8.456 -0.4825 -0.2376 -0.3586
12267SOL    HW136979   6.276   5.740   8.491 -1.2003  0.1500 -0.7463
12267SOL    HW236980   6.312   5.621   8.385  0.7150 -0.8156  0.9134
12268SOL     OW36981   5.280   6.260   8.638  0.2183  0.7851  0.1104
12268SOL    HW136982   5.366   6.249   8.687 -0.1166  2.5199  1.1991
12268SOL    HW236983   5.252   6.356   8.642 -0.0013  0.9782 -3.2626
12269SOL     OW36984   2.943   1.604   6.578 -0.2936 -0.3973 -0.0070
12269SOL    HW136985   3.000   1.524   6.559 -0.1809 -0.2201 -0.4376
12269SOL    HW236986   2.983   1.684   6.534 -0.0654  0.0241  0.9494
12270SOL     OW36987   3.029   7.954   2.905 -0.3273 -0.3798  0.1755
12270SOL    HW136988   3.052   8.051   2.895 -0.4243 -0.4933 -1.3859
12270SOL    HW236989   3.079   7.916   2.983  2.6787  0.0379 -1.4034
12271SOL     OW36990   3.673   5.082   3.001 -0.4454  0.5987  0.1745
12271SOL    HW136991   3.687   4.994   3.044 -0.1494 -0.2706 -1.6140
12271SOL    HW236992   3.635   5.146   3.068 -0.3876 -0.7754  1.5783
12272SOL     OW36993   3.940   1.780   3.234  0.2937 -0.5093  0.0113
12272SOL    HW136994   4.019   1.732   3.273  0.4542 -0.7477 -0.6093
12272SOL    HW236995   3.864   1.777   3.299  1.0471  0.4294  0.9702
12273SOL     OW36996   7.953   8.703   3.313  0.1453 -0.1015  0.7132
12273SOL    HW136997   7.914   8.776   3.370 -0.8731 -0.7580  0.8874
12273SOL    HW236998   7.963   8.620   3.367  0.3690 -0.3708  0.2601
12274SOL     OW36999   3.228   6.034   4.626  0.0744  0.1703 -0.1321
12274SOL    HW137000   3.326   6.053   4.629  0.1089  0.1725 -0.9834
12274SOL    HW237001   3.208   5.978   4.546 -0.6999  0.6614 -0.2899
12275SOL     OW37002   7.058   0.375   1.468  0.8827 -0.0904  0.2929
12275SOL    HW137003   7.153   0.356   1.493  0.4798 -2.6570  0.1481
12275SOL    HW237004   6.996   0.332   1.535 -0.1585 -1.2929 -1.3638
12276SOL     OW37005   2.099   4.904   4.320 -0.0449 -0.0502 -0.4637
12276SOL    HW137006   2.056   4.937   4.235 -1.1929 -1.0197 -0.2749
12276SOL    HW237007   2.192   4.872   4.299 -0.1037  0.2503 -1.2423
12277SOL     OW37008   3.615   0.721   6.139  0.0782  0.4289  0.2317
12277SOL    HW137009   3.571   0.742   6.051 -0.4335  0.4939  0.5001
12277SOL    HW237010   3.711   0.700   6.123  0.6669  3.0442 -0.0507
12278SOL     OW37011   6.277   3.972   8.226 -0.5720  0.3479  0.3720
12278SOL    HW137012   6.178   3.965   8.237 -0.4343  0.9390  2.5070
12278SOL    HW237013   6.322   3.916   8.297  0.6384 -0.3030 -0.8698
12279SOL     OW37014   6.071   5.879   7.060 -0.0136  0.2637  0.1726
12279SOL    HW137015   6.150   5.862   7.120  0.8521 -0.4814 -1.1065
12279SOL    HW237016   6.087   5.962   7.007 -0.3824  0.4516  0.3543
12280SOL     OW37017   6.304   1.671   7.313  0.1728 -0.1567  0.1029
12280SOL    HW137018   6.207   1.681   7.333 -0.0604  0.5466 -1.2620
12280SOL    HW237019   6.343   1.761   7.289  1.6036 -0.0825  2.4173
12281SOL     OW37020   7.904   7.835   8.279 -0.4265  0.0057  0.1922
12281SOL    HW137021   7.910   7.754   8.221  1.2015 -0.8196  1.4201
12281SOL    HW237022   7.974   7.830   8.350 -0.2586  2.5025  0.3056
12282SOL     OW37023   6.664   2.586   3.313  0.1085  0.0388  0.0361
12282SOL    HW137024   6.630   2.604   3.405  1.5231  0.7390  0.4385
12282SOL    HW237025   6.764   2.583   3.313  0.1192 -0.6238 -1.3635
12283SOL     OW37026   3.078   8.324   0.938  0.4861 -0.6380  0.5529
12283SOL    HW137027   3.002   8.310   0.874 -0.2591  0.9630  1.0233
12283SOL    HW237028   3.160   8.278   0.903  0.0052 -0.1336 -1.3720
12284SOL     OW37029   3.274   4.684   1.176 -0.1012  0.1536  0.2762
12284SOL    HW137030   3.316   4.771   1.205 -0.9336  1.0835 -1.1829
12284SOL    HW237031   3.309   4.660   1.086 -2.8136  1.1165 -1.1408
12285SOL     OW37032   6.818   1.091   3.523  0.2918 -0.0702 -0.3437
12285SOL    HW137033   6.770   1.059   3.441 -0.6019 -3.5275  1.3605
12285SOL    HW237034   6.901   1.037   3.536 -0.2806 -0.5317  1.6944
12286SOL     OW37035   8.537   7.754   2.896 -0.1712 -0.1222  0.1239
12286SOL    HW137036   8.605   7.684   2.918 -0.0838  0.1137  0.6406
12286SOL    HW237037   8.550   7.832   2.957 -1.0755 -0.1865  0.4174
12287SOL     OW37038   0.876   8.133   7.136 -0.2781 -0.0084 -0.6043
12287SOL    HW137039   0.841   8.136   7.043  0.7731  0.9968 -0.9880
12287SOL    HW237040   0.943   8.059   7.144 -1.0465 -0.7030 -0.3715
12288SOL     OW37041   5.213   0.951   6.943  0.3732  0.2342 -0.5448
12288SOL    HW137042   5.300   0.997   6.923 -1.1128  3.3535 -0.4624
12288SOL    HW237043   5.166   0.931   6.857  0.3252  0.3422 -0.5440
12289SOL     OW37044   7.602   1.128   5.701 -0.5068  0.3463 -0.2692
12289SOL    HW137045   7.630   1.052   5.759 -0.4583 -0.7674 -1.6916
12289SOL    HW237046   7.681   1.162   5.649 -0.4541  1.6099  0.5871
12290SOL     OW37047   4.339   1.303   2.858 -0.1049  0.1287 -0.2414
12290SOL    HW137048   4.304   1.351   2.778 -1.6175 -0.1996  0.1989
12290SOL    HW237049   4.298   1.342   2.941  1.1455  0.2166  0.3651
12291SOL     OW37050   6.623   2.243   0.124  0.2606  0.0845 -0.0060
12291SOL    HW137051   6.676   2.286   0.198  0.7019  0.6396 -0.6379
12291SOL    HW237052   6.674   2.249   0.039 -1.2017  1.4961 -0.8462
12292SOL     OW37053   2.293   5.109   4.940  0.1998 -0.8299 -0.3973
12292SOL    HW137054   2.313   5.095   5.037 -0.0745 -0.4688 -0.2902
12292SOL    HW237055   2.321   5.028   4.889  0.4480 -0.9772 -0.0320
12293SOL     OW37056   7.889   4.147   1.923 -0.4066  0.0202  0.2152
12293SOL    HW137057   7.857   4.217   1.987 -2.6033 -2.5372  2.1253
12293SOL    HW237058   7.823   4.138   1.848  0.2151  0.3763 -0.3932
12294SOL     OW37059   7.558   7.558   1.244 -0.2510 -0.1688  0.3227
12294SOL    HW137060   7.552   7.597   1.336 -2.2647  1.2148 -0.3176
12294SOL    HW237061   7.607   7.471   1.247  1.2293  0.6648  2.3997
12295SOL     OW37062   0.778   8.211   2.762 -0.2213 -0.2989  0.1406
12295SOL    HW137063   0.802   8.143   2.832 -0.5676  0.4820  1.0500
12295SOL    HW237064   0.679   8.219   2.756 -0.1892  0.6479  0.5969
12296SOL     OW37065   1.298   6.499   3.441  0.0147 -0.3894 -0.3387
12296SOL    HW137066   1.223   6.552   3.480  0.7273 -0.1173  0.7129
12296SOL    HW237067   1.292   6.405   3.473  0.9643 -0.0183  0.9872
12297SOL     OW37068   5.504   3.955   7.073  0.1369 -0.5491 -0.6437
12297SOL    HW137069   5.427   4.017   7.088  0.3015 -0.1219 -1.4959
12297SOL    HW237070   5.469   3.864   7.049 -0.1241 -1.1348  1.7550
12298SOL     OW37071   0.225   3.451   7.857 -0.5587 -0.0897  0.0419
12298SOL    HW137072   0.233   3.545   7.824 -2.3006  0.3748  0.8408
12298SOL    HW237073   0.144   3.443   7.915 -0.0388 -1.9245  0.5728
12299SOL     OW37074   0.365   5.980   2.715 -0.1202  0.4811 -0.0213
12299SOL    HW137075   0.432   6.003   2.785 -1.8512  2.1192  1.1865
12299SOL    HW237076   0.380   6.037   2.635  0.2433  0.4726  0.0367
12300SOL     OW37077   2.369   6.890   5.288  0.0410 -0.1292 -0.3829
12300SOL    HW137078   2.442   6.826   5.265 -0.0030 -0.6420  0.8574
12300SOL    HW237079   2.407   6.966   5.342 -0.6182 -1.4047  1.9970
12301SOL     OW37080   0.430   2.991   7.710  0.4214  0.4216 -0.3166
12301SOL    HW137081   0.368   3.069   7.708  0.1959  0.2510 -0.1581
12301SOL    HW237082   0.376   2.906   7.712  0.4494  0.2644  4.2282
12302SOL     OW37083   7.489   7.907   4.166  0.0007 -0.0718  0.1656
12302SOL    HW137084   7.456   7.951   4.083  0.1866 -1.2971 -0.5903
12302SOL    HW237085   7.535   7.821   4.142  2.7989  1.0060  1.2626
12303SOL     OW37086   1.224   7.652   1.675 -0.1219 -1.1167  0.4341
12303SOL    HW137087   1.296   7.720   1.676  0.9570 -2.2085  2.1267
12303SOL    HW237088   1.257   7.567   1.716 -2.5971 -1.3888  2.1321
12304SOL     OW37089   2.557   2.946   4.729  0.3057 -0.0702  0.7573
12304SOL    HW137090   2.481   3.004   4.698 -0.7334 -2.6266 -2.0891
12304SOL    HW237091   2.637   2.962   4.671  0.1289 -1.1128  0.1907
12305SOL     OW37092   2.900   5.091   4.948 -0.1136  0.6010 -0.0288
12305SOL    HW137093   2.937   4.998   4.959 -1.0408  0.5250  3.6942
12305SOL    HW237094   2.806   5.094   4.982 -0.2525  2.8505 -0.4546
12306SOL     OW37095   1.716   7.076   8.254  0.3875  0.5108  0.2835
12306SOL    HW137096   1.748   7.126   8.335  0.6851 -0.0036  0.4881
12306SOL    HW237097   1.782   7.005   8.230 -0.2378 -0.0747  0.2549
12307SOL     OW37098   4.867   7.943   1.430  0.4561  0.4387 -0.7259
12307SOL    HW137099   4.882   7.997   1.513  0.9533  0.5720 -0.8992
12307SOL    HW237100   4.859   8.004   1.351  1.2718  0.2587 -0.9602
12308SOL     OW37101   8.407   2.839   5.744  0.5955 -0.0682  0.0936
12308SOL    HW137102   8.397   2.761   5.806  0.8763  1.5002  2.2182
12308SOL    HW237103   8.318   2.858   5.701  0.0217 -0.3434  1.1098
12309SOL     OW37104   8.141   2.147   1.299 -0.4259 -0.7783 -0.0859
12309SOL    HW137105   8.143   2.169   1.201  1.4710  0.3214  0.1315
12309SOL    HW237106   8.211   2.078   1.319  3.1165  2.7490  1.1261
12310SOL     OW37107   3.561   6.266   2.028  0.4063 -0.0882  0.2357
12310SOL    HW137108   3.535   6.282   2.123  0.4250 -0.5387  0.3218
12310SOL    HW237109   3.648   6.312   2.009 -0.3233  1.2537  0.0043
12311SOL     OW37110   1.791   7.989   4.659 -0.1937 -0.4308  0.3683
12311SOL    HW137111   1.734   8.020   4.584 -0.7326  0.6032  1.1767
12311SOL    HW237112   1.761   7.898   4.689 -2.0551  0.4527  1.3622
12312SOL     OW37113   5.201   6.841   8.858 -0.3601 -0.5361  0.1014
12312SOL    HW137114   5.240   6.761   8.903  0.5740  0.1648  0.5660
12312SOL    HW237115   5.194   6.824   8.760  3.1080  0.0192 -0.3707
12313SOL     OW37116   7.562   3.016   1.931  0.0750 -0.0790  0.1814
12313SOL    HW137117   7.470   3.002   1.896  0.0169 -1.8064  0.9115
12313SOL    HW237118   7.559   3.084   2.005 -0.0848  2.1483 -1.7682
12314SOL     OW37119   5.640   2.420   4.452 -0.2115  0.6255  0.1332
12314SOL    HW137120   5.548   2.431   4.413 -0.1277  0.0602 -0.2426
12314SOL    HW237121   5.702   2.485   4.407 -0.3239  0.6687  0.0366
12315SOL     OW37122   5.324   7.185   1.866  0.3707  0.2300  0.1262
12315SOL    HW137123   5.331   7.277   1.827  1.3471 -0.0891 -0.4791
12315SOL    HW237124   5.314   7.119   1.792  1.4164 -0.3106  0.4556
12316SOL     OW37125   0.733   8.028   4.975  0.8731 -0.1418  0.7467
12316SOL    HW137126   0.730   8.054   4.878  2.3591 -1.2371  0.3655
12316SOL    HW237127   0.794   8.090   5.023  0.0109  0.5012  1.0426
12317SOL     OW37128   8.318   4.504   2.177 -0.7260 -0.1258 -0.1401
12317SOL    HW137129   8.256   4.545   2.244 -0.1705 -0.0944  0.3616
12317SOL    HW237130   8.412   4.534   2.195 -0.3425 -1.3668  0.0553
12318SOL     OW37131   3.118   3.709   0.753 -0.1673 -0.4573 -0.2380
12318SOL    HW137132   3.054   3.708   0.676 -0.6399  0.8226  0.1061
12318SOL    HW237133   3.075   3.667   0.833 -0.8870  1.0015  0.1870
12319SOL     OW37134   8.170   7.846   4.566 -0.7608 -0.0401  0.5170
12319SOL    HW137135   8.190   7.752   4.537 -1.6641 -0.1511  0.2290
12319SOL    HW237136   8.153   7.847   4.665  0.9169  0.1108  0.8393
12320SOL     OW37137   1.587   5.521   5.938 -0.8511 -1.0678 -0.4579
12320SOL    HW137138   1.596   5.422   5.935  1.8900 -0.8888 -0.8444
12320SOL    HW237139   1.643   5.562   5.865 -0.3685  0.7895  0.8607
12321SOL     OW37140   7.871   7.378   8.066 -0.5050  0.2218  0.1716
12321SOL    HW137141   7.932   7.411   7.995 -1.8931  2.0972 -0.2357
12321SOL    HW237142   7.871   7.278   8.067 -0.5285  0.1239 -2.5662
12322SOL     OW37143   4.840   3.941   1.082  0.2098 -0.5858 -0.5039
12322SOL    HW137144   4.935   3.911   1.074  0.7823  0.5294  1.3890
12322SOL    HW237145   4.781   3.862   1.096  0.9310 -1.2265 -0.9511
12323SOL     OW37146   2.303   7.988   2.136  0.5352  0.4836  0.2167
12323SOL    HW137147   2.334   7.978   2.231  2.2920 -0.3520 -0.3875
12323SOL    HW237148   2.364   7.935   2.076 -1.2473  0.0163 -1.2580
12324SOL     OW37149   2.474   5.685   4.766 -0.0000  0.1627  0.1694
12324SOL    HW137150   2.419   5.623   4.822 -0.4146  0.0864 -0.3059
12324SOL    HW237151   2.421   5.766   4.744  0.4299  0.5394  0.5180
12325SOL     OW37152   3.689   4.296   0.794 -0.3036 -0.3230  0.2617
12325SOL    HW137153   3.660   4.218   0.738 -1.1513 -1.5584  2.2627
12325SOL    HW237154   3.626   4.306   0.871  0.7423  1.3377  0.9547
12326SOL     OW37155   7.440   1.682   0.500  0.5500  0.8569  0.3701
12326SOL    HW137156   7.364   1.729   0.543 -0.6363 -0.9903  0.3795
12326SOL    HW237157   7.472   1.608   0.559 -1.0084 -1.6329 -1.7128
12327SOL     OW37158   6.391   6.947   7.145 -0.6418  0.3385 -0.0065
12327SOL    HW137159   6.387   6.854   7.181  1.4302 -0.3421 -1.3137
12327SOL    HW237160   6.367   6.946   7.048  1.3556  0.7655 -0.5479
12328SOL     OW37161   2.545   6.149   2.889 -0.0180 -0.0095  0.0313
12328SOL    HW137162   2.477   6.170   2.959 -0.2285 -0.0945 -0.1484
12328SOL    HW237163   2.501   6.104   2.811 -0.0144  1.2577 -0.7328
12329SOL     OW37164   6.850   4.670   5.358 -0.1506  0.0224  0.0768
12329SOL    HW137165   6.756   4.641   5.373  0.5395 -0.8262  3.8502
12329SOL    HW237166   6.893   4.692   5.446  3.3824 -0.3204 -1.3735
12330SOL     OW37167   4.125   5.169   7.193 -0.0401  0.0758  0.2137
12330SOL    HW137168   4.132   5.209   7.285  0.2232  0.6611 -0.0526
12330SOL    HW237169   4.122   5.243   7.126 -0.8836 -0.3401 -0.2101
12331SOL     OW37170   4.897   3.650   5.622 -0.0479  0.2317  0.3669
12331SOL    HW137171   4.911   3.559   5.583 -0.6293  0.3285 -0.0755
12331SOL    HW237172   4.894   3.643   5.722 -2.3829 -0.5705  0.2858
12332SOL     OW37173   1.942   0.888   2.251  0.0565 -0.1726  0.4700
12332SOL    HW137174   2.025   0.858   2.205 -1.1938 -0.4654 -1.7065
12332SOL    HW237175   1.885   0.809   2.272 -0.6557  0.1836 -0.0707
12333SOL     OW37176   1.442   2.631   0.913  0.0675  0.2968 -0.6496
12333SOL    HW137177   1.409   2.640   0.819 -2.0782 -1.4578 -0.1579
12333SOL    HW237178   1.365   2.640   0.976  0.8516 -1.8675  0.7388
12334SOL     OW37179   1.145   2.636   8.216 -0.2871 -0.2642  0.6547
12334SOL    HW137180   1.117   2.543   8.239 -0.3993 -0.0481  1.4426
12334SOL    HW237181   1.150   2.647   8.117 -1.0097 -0.8871  0.5474
12335SOL     OW37182   1.441   2.984   8.376  0.7487 -0.0309  0.7628
12335SOL    HW137183   1.536   2.990   8.408  1.7164 -1.4741 -1.5061
12335SOL    HW237184   1.423   2.890   8.346 -1.1168  0.4356  0.3173
12336SOL     OW37185   0.771   1.992   6.669 -0.4195  0.0204  0.4081
12336SOL    HW137186   0.868   2.004   6.650 -0.9302  0.0614 -2.6819
12336SOL    HW237187   0.728   2.082   6.683 -0.7445  0.4883 -2.9003
12337SOL     OW37188   8.289   5.643   8.768 -0.0544 -0.3508  0.2312
12337SOL    HW137189   8.251   5.659   8.677  1.0685 -0.0890 -0.2140
12337SOL    HW237190   8.320   5.548   8.775  0.7889 -0.1051 -0.0329
12338SOL     OW37191   8.686   6.286   7.969  0.4405  0.5572  0.3287
12338SOL    HW137192   8.768   6.282   7.911  0.2466 -2.5549  0.0956
12338SOL    HW237193   8.713   6.273   8.065  0.2572  0.0294  0.3073
12339SOL     OW37194   7.369   0.644   7.958  0.1912  0.4192  0.0388
12339SOL    HW137195   7.293   0.708   7.947 -0.5942 -0.3499  0.7407
12339SOL    HW237196   7.455   0.690   7.938 -0.2617  1.9714  1.4201
12340SOL     OW37197   8.830   5.347   3.388 -0.0199  0.3991 -0.0921
12340SOL    HW137198   8.843   5.303   3.476 -0.8103 -0.1980 -0.2614
12340SOL    HW237199   8.918   5.373   3.350  0.3577  0.2082  0.6417
12341SOL     OW37200   8.548   6.693   2.995 -0.2729  0.6469  0.0252
12341SOL    HW137201   8.566   6.670   3.090  0.6836  1.8394  0.1563
12341SOL    HW237202   8.520   6.611   2.945  1.7598 -0.5624  0.7480
12342SOL     OW37203   1.941   5.625   3.987 -0.2411  0.0531  0.1104
12342SOL    HW137204   1.935   5.674   4.074  1.5874 -0.2585  0.4463
12342SOL    HW237205   1.986   5.537   4.001 -1.4195 -0.7526 -0.8924
12343SOL     OW37206   8.155   7.275   4.414 -0.4027  0.3493  0.3380
12343SOL    HW137207   8.241   7.229   4.393 -1.0432 -0.3001 -1.0092
12343SOL    HW237208   8.093   7.212   4.460 -2.4496 -1.4018 -4.2134
12344SOL     OW37209   2.351   2.026   6.400 -0.1503 -0.0078  0.2844
12344SOL    HW137210   2.261   1.998   6.368 -0.4252  0.1607  0.8926
12344SOL    HW237211   2.349   2.036   6.500  0.1969  1.2318  0.1804
12345SOL     OW37212   4.581   0.909   0.652 -0.0432  0.3783  0.6427
12345SOL    HW137213   4.533   0.856   0.582  0.9591 -0.9089  0.8897
12345SOL    HW237214   4.676   0.924   0.623 -0.4956  2.7981  0.2024
12346SOL     OW37215   4.327   6.268   1.253 -0.1591  0.5009  0.6457
12346SOL    HW137216   4.359   6.190   1.200  0.1880  1.2444 -0.2773
12346SOL    HW237217   4.240   6.246   1.297  1.0195 -1.1664  2.2760
12347SOL     OW37218   4.151   1.442   0.009  0.3775  0.1093 -0.4708
12347SOL    HW137219   4.122   1.355  -0.031 -3.2082  1.2365 -0.6765
12347SOL    HW237220   4.120   1.446   0.104  1.3423  0.8450 -0.1692
12348SOL     OW37221   6.476   6.076   0.619 -0.5450 -0.3323  0.3354
12348SOL    HW137222   6.447   6.042   0.529 -0.6621  0.6119  0.0083
12348SOL    HW237223   6.433   6.164   0.637 -1.2516 -0.9399  1.7404
12349SOL     OW37224   6.910   5.463   0.990 -0.2818 -0.0760 -0.1916
12349SOL    HW137225   6.851   5.401   1.041  0.4996  0.1967  1.0954
12349SOL    HW237226   6.863   5.494   0.908 -2.4537  1.1248  1.3861
12350SOL     OW37227   4.022   8.215   2.649  0.3843 -0.0131  0.1683
12350SOL    HW137228   4.024   8.117   2.669  1.7068  0.0014  0.2181
12350SOL    HW237229   4.101   8.258   2.691 -0.0294  1.0371 -0.1084
12351SOL     OW37230   8.113   8.794   5.069 -0.2334 -0.5156  0.0101
12351SOL    HW137231   8.056   8.863   5.024  0.2419 -1.2827 -1.8892
12351SOL    HW237232   8.179   8.840   5.129 -1.9311  0.4502  1.2279
12352SOL     OW37233   0.606   5.239   7.280  0.0803  0.5063 -0.2321
12352SOL    HW137234   0.615   5.142   7.303  1.3966  0.5528 -0.4644
12352SOL    HW237235   0.533   5.251   7.213 -0.4291 -0.2553  0.1788
12353SOL     OW37236   0.413   1.405   4.147 -0.5969 -0.0035  0.1154
12353SOL    HW137237   0.401   1.323   4.091  1.6581  0.0235 -0.5128
12353SOL    HW237238   0.359   1.397   4.230 -0.5280 -2.0820  0.0165
12354SOL     OW37239   0.192   5.836   2.023  0.0468 -0.0872  0.4696
12354SOL    HW137240   0.264   5.813   1.958 -0.6518  0.2060 -0.4399
12354SOL    HW237241   0.227   5.830   2.117  0.2821 -3.5054  0.2546
12355SOL     OW37242   7.175   3.942   6.920 -0.6223  0.2966  0.3494
12355SOL    HW137243   7.261   3.958   6.967 -1.0733 -0.9881  1.6949
12355SOL    HW237244   7.100   3.940   6.987 -1.4674 -0.2396 -0.5819
12356SOL     OW37245   8.823   6.609   5.532  0.7634  0.0147 -0.1556
12356SOL    HW137246   8.817   6.695   5.582  0.3482 -0.3974  0.5218
12356SOL    HW237247   8.913   6.600   5.491  0.3288  1.4691 -1.5240
12357SOL     OW37248   8.306   8.687   8.002  0.3448  0.3871 -0.3734
12357SOL    HW137249   8.298   8.678   8.101  0.2932  0.5474 -0.3624
12357SOL    HW237250   8.267   8.606   7.958  0.1108  0.4432 -0.2702
12358SOL     OW37251   8.348   7.667   6.528 -0.2426 -0.2251 -0.1377
12358SOL    HW137252   8.414   7.593   6.537  1.2879  0.9011 -1.5269
12358SOL    HW237253   8.368   7.721   6.446 -2.3507  0.7204 -0.1164
12359SOL     OW37254   2.810   5.763   3.234  0.7668 -0.2438 -0.2249
12359SOL    HW137255   2.901   5.723   3.226  0.1720 -1.3279 -2.2683
12359SOL    HW237256   2.817   5.863   3.239  2.0392 -0.2486 -1.4538
12360SOL     OW37257   6.157   1.002   1.949  0.2837  0.2952  0.2421
12360SOL    HW137258   6.164   1.062   1.870  0.2531  1.0372  0.7982
12360SOL    HW237259   6.141   1.056   2.032  0.4477 -0.4572  0.7806
12361SOL     OW37260   6.794   2.262   6.816 -0.1715  0.0103  0.0643
12361SOL    HW137261   6.738   2.209   6.753  0.5635 -0.9593  0.1932
12361SOL    HW237262   6.853   2.200   6.869  2.2099  1.0356 -1.2034
12362SOL     OW37263   0.414   1.355   0.519  0.7899  0.0131  0.4560
12362SOL    HW137264   0.340   1.358   0.587  0.0941 -1.4085 -0.1777
12362SOL    HW237265   0.481   1.426   0.540  0.2768  0.0440  2.2385
12363SOL     OW37266   7.098   0.569   6.603  0.1219 -0.2436  0.2893
12363SOL    HW137267   6.998   0.566   6.612  0.0019  0.1330 -0.8432
12363SOL    HW237268   7.127   0.506   6.531  0.6154  0.3162 -0.0079
12364SOL     OW37269   8.507   7.219   7.210 -0.1639 -0.2307 -0.0785
12364SOL    HW137270   8.477   7.201   7.303 -0.7163  0.0963 -0.1915
12364SOL    HW237271   8.504   7.134   7.157  2.9514 -1.1129  0.9364
12365SOL     OW37272   5.427   4.261   5.885  0.3823 -0.2954 -0.5738
12365SOL    HW137273   5.449   4.336   5.947 -1.9096 -0.4661  0.5485
12365SOL    HW237274   5.464   4.282   5.794  1.2807  1.3510  0.1187
12366SOL     OW37275   5.281   5.639   5.082  0.4883  0.6538 -0.6157
12366SOL    HW137276   5.219   5.683   5.018  0.3412  1.5451  0.1127
12366SOL    HW237277   5.348   5.584   5.032 -1.3179 -0.9426 -1.3760
12367SOL     OW37278   4.111   1.754   5.613 -0.1727  0.2367 -0.0651
12367SOL    HW137279   4.141   1.759   5.518  2.2945 -2.3166  0.4331
12367SOL    HW237280   4.169   1.814   5.669 -1.1475  1.1792 -0.0370
12368SOL     OW37281   4.338   7.094   8.019 -0.6336 -0.0697 -0.1555
12368SOL    HW137282   4.324   7.112   7.922 -1.7182  2.7086  0.4267
12368SOL    HW237283   4.436   7.100   8.040 -0.2633 -1.8304 -1.2220
12369SOL     OW37284   6.285   6.686   7.229 -0.4020 -0.0079 -0.6139
12369SOL    HW137285   6.344   6.631   7.169 -3.4427 -2.2745 -1.7666
12369SOL    HW237286   6.197   6.701   7.184 -1.6653  1.0010  2.0171
12370SOL     OW37287   5.750   1.372   5.425 -0.7108 -0.0656 -0.7161
12370SOL    HW137288   5.845   1.378   5.393 -0.3369  0.0708  0.3733
12370SOL    HW237289   5.729   1.277   5.450 -0.5909  0.0376 -0.2001
12371SOL     OW37290   3.653   4.362   3.805 -0.4180  0.4484  0.0299
12371SOL    HW137291   3.622   4.272   3.834  0.4190  0.4342  0.9205
12371SOL    HW237292   3.574   4.425   3.803 -0.5846  0.3795  2.1203
12372SOL     OW37293   6.030   2.995   1.138 -0.7236 -0.1168 -0.1539
12372SOL    HW137294   6.044   2.926   1.067 -1.6050 -0.6264  0.1525
12372SOL    HW237295   5.962   3.061   1.108 -0.2353  0.3543 -0.2480
12373SOL     OW37296   8.027   4.173   2.526  0.2243  0.3316  0.0533
12373SOL    HW137297   8.122   4.148   2.545  0.1143  0.5055  0.8414
12373SOL    HW237298   7.969   4.148   2.603 -0.0749  1.9688  0.3971
12374SOL     OW37299   7.940   1.828   1.125 -0.2711  0.1324 -0.1965
12374SOL    HW137300   8.005   1.849   1.197  0.7501  0.0125 -1.0662
12374SOL    HW237301   7.984   1.837   1.036 -1.2660 -0.5953 -0.7855
12375SOL     OW37302   1.742   3.643   2.201  0.1135 -0.0315 -0.0964
12375SOL    HW137303   1.777   3.618   2.291 -1.7764  1.9744  1.3040
12375SOL    HW237304   1.787   3.588   2.131  1.3705 -1.9403  2.0797
12376SOL     OW37305   4.998   8.479   2.722  0.0312 -0.2631 -0.0853
12376SOL    HW137306   4.943   8.473   2.806  0.0377  1.8217  0.1113
12376SOL    HW237307   4.940   8.457   2.644 -0.4464 -0.4769  0.3159
12377SOL     OW37308   6.528   1.838   0.264  0.0292  0.0930 -0.6761
12377SOL    HW137309   6.482   1.842   0.353  0.1749 -0.0188 -0.5945
12377SOL    HW237310   6.619   1.880   0.272  0.2092 -0.2977 -0.6664
12378SOL     OW37311   2.462   0.867   3.628 -0.3281  0.0391  0.1200
12378SOL    HW137312   2.425   0.952   3.666  0.3544 -0.2693  1.5386
12378SOL    HW237313   2.555   0.853   3.663  0.7534  0.2021 -2.4095
12379SOL     OW37314   2.619   7.686   1.454  0.4786 -0.3179 -0.1958
12379SOL    HW137315   2.591   7.590   1.458  0.0889 -0.2085 -0.2869
12379SOL    HW237316   2.542   7.743   1.423  0.4930  0.1105  0.5274
12380SOL     OW37317   8.353   8.654   0.362  0.0447  0.4585 -0.5149
12380SOL    HW137318   8.422   8.583   0.378  2.1510  2.0753 -1.8935
12380SOL    HW237319   8.331   8.659   0.265  0.0803  1.7821 -0.4758
12381SOL     OW37320   1.536   3.562   2.432 -0.0667  0.3594  0.4124
12381SOL    HW137321   1.474   3.628   2.475 -2.2659 -1.5865  0.3905
12381SOL    HW237322   1.497   3.530   2.346  0.3401 -1.8295  0.9908
12382SOL     OW37323   6.089   4.154   6.132  0.0564  0.1038  0.0494
12382SOL    HW137324   6.058   4.153   6.227 -0.5088  0.1084 -0.1286
12382SOL    HW237325   6.059   4.239   6.088  2.8805  1.5517  0.6797
12383SOL     OW37326   8.558   7.460   6.854 -0.5058  0.3262 -0.7828
12383SOL    HW137327   8.506   7.449   6.939 -0.2883  0.2792 -0.6540
12383SOL    HW237328   8.537   7.384   6.792  0.8087 -0.7270  0.0050
12384SOL     OW37329   1.865   1.289   5.227 -0.2974 -0.0725  0.2169
12384SOL    HW137330   1.852   1.336   5.139 -0.6606 -0.5727 -0.0013
12384SOL    HW237331   1.962   1.281   5.246 -0.2201  1.7139  0.7759
12385SOL     OW37332   4.754   2.403   3.640  0.3622 -0.0708  0.6148
12385SOL    HW137333   4.731   2.306   3.626 -1.1315  0.4647 -0.8622
12385SOL    HW237334   4.828   2.429   3.578 -0.8142  0.2847 -0.6805
12386SOL     OW37335   1.780   0.550   4.137 -0.0394 -0.1523 -0.4399
12386SOL    HW137336   1.708   0.614   4.110  0.0433 -0.1336 -0.6175
12386SOL    HW237337   1.857   0.558   4.074  0.3996  0.3133  0.1496
12387SOL     OW37338   4.032   2.061   0.474  0.3010 -0.1170  0.0358
12387SOL    HW137339   4.101   2.129   0.499  1.4792 -1.6164  1.0258
12387SOL    HW237340   3.960   2.060   0.543 -0.6892  1.3360 -0.9147
12388SOL     OW37341   6.720   0.266   5.558  0.0017  0.2527  0.4555
12388SOL    HW137342   6.775   0.184   5.548 -2.3466 -1.2137 -1.7893
12388SOL    HW237343   6.630   0.241   5.595 -0.5720  1.9007  0.2532
12389SOL     OW37344   2.027   5.348   7.825 -0.3274 -0.0809  0.2465
12389SOL    HW137345   1.961   5.336   7.899 -1.1890 -0.0371 -0.5118
12389SOL    HW237346   1.983   5.391   7.747  0.2336 -1.3438 -0.7975
12390SOL     OW37347   0.987   5.741   4.333  0.3130 -0.0088  0.3797
12390SOL    HW137348   1.047   5.724   4.254  0.8179  0.6557  0.6100
12390SOL    HW237349   0.914   5.804   4.306  0.1052 -0.2855  0.2818
12391SOL     OW37350   2.126   3.112   6.965  0.6183 -0.2723  0.7831
12391SOL    HW137351   2.221   3.112   6.995 -0.1647  0.6094  3.6203
12391SOL    HW237352   2.078   3.035   7.008 -0.3270  0.2839  0.7458
12392SOL     OW37353   1.382   8.743   2.240  0.0051  0.3192 -0.7036
12392SOL    HW137354   1.428   8.818   2.289 -0.6380  0.7378 -0.7272
12392SOL    HW237355   1.388   8.660   2.295 -2.8945  1.3304  1.3805
12393SOL     OW37356   2.879   1.887   0.518  0.5464 -0.1834 -0.3478
12393SOL    HW137357   2.814   1.940   0.464  0.8742  1.0319  0.4203
12393SOL    HW237358   2.937   1.833   0.457 -0.7983 -0.8521 -1.0651
12394SOL     OW37359   7.070   0.195   0.137  0.0791  0.2861 -0.5221
12394SOL    HW137360   7.114   0.148   0.060  0.7131 -0.1706  0.1086
12394SOL    HW237361   7.049   0.289   0.111  2.6075  0.9305 -0.4238
12395SOL     OW37362   7.865   0.100   1.626 -0.3898 -0.1645  0.6407
12395SOL    HW137363   7.885   0.144   1.538 -0.2089 -1.6348 -0.0965
12395SOL    HW237364   7.852   0.170   1.696  1.0931  1.0371 -0.1973
12396SOL     OW37365   7.401   7.358   2.085 -0.0036  0.1102  0.2477
12396SOL    HW137366   7.444   7.448   2.085 -0.3001  0.2574  0.7150
12396SOL    HW237367   7.338   7.351   2.162  1.0941 -0.9977  1.0994
12397SOL     OW37368   7.099   4.557   5.269 -0.1592  0.4215 -0.9529
12397SOL    HW137369   7.003   4.543   5.293 -0.1701 -0.6944 -1.5665
12397SOL    HW237370   7.158   4.507   5.332 -0.0657 -0.1954 -1.5137
12398SOL     OW37371   8.663   7.506   0.023  0.5801 -0.5217 -0.0001
12398SOL    HW137372   8.592   7.556  -0.027  1.0671  0.1881  0.0218
12398SOL    HW237373   8.679   7.549   0.111 -0.8985 -2.2660  1.2089
12399SOL     OW37374   7.231   0.695   1.454 -0.1694 -0.1420 -0.0097
12399SOL    HW137375   7.302   0.650   1.400  0.3315  0.8439 -0.2024
12399SOL    HW237376   7.144   0.693   1.404  0.6189  2.1120 -1.6282
12400SOL     OW37377   5.619   7.699   2.756  0.3196  0.5851 -0.0515
12400SOL    HW137378   5.543   7.653   2.710  0.5463  0.6713 -0.5164
12400SOL    HW237379   5.693   7.633   2.771  0.5735  0.7520 -0.5567
12401SOL     OW37380   6.164   2.082   0.779  0.4574 -0.5754 -0.5463
12401SOL    HW137381   6.091   2.088   0.710  0.2502 -0.9801 -0.3687
12401SOL    HW237382   6.134   2.022   0.853  0.9367 -0.6670 -0.4244
12402SOL     OW37383   4.912   8.036   0.679 -0.5437  0.2820 -0.2320
12402SOL    HW137384   4.921   8.020   0.778  1.1301  0.3815 -0.3429
12402SOL    HW237385   4.828   8.087   0.661  0.1901  2.1596  1.3675
12403SOL     OW37386   5.136   4.575   3.515  0.1818 -0.5470 -0.0041
12403SOL    HW137387   5.053   4.605   3.466 -0.2985  1.2502  1.7699
12403SOL    HW237388   5.130   4.477   3.533 -0.4386 -0.9154 -1.9514
12404SOL     OW37389   0.810   6.131   7.372  0.6407  0.3328  0.2079
12404SOL    HW137390   0.835   6.146   7.468  1.6738  1.9095 -0.2708
12404SOL    HW237391   0.810   6.218   7.324 -0.8998 -0.2977 -1.0142
12405SOL     OW37392   6.459   3.550   0.431 -0.0067  0.3457  0.2640
12405SOL    HW137393   6.483   3.559   0.334  1.2784  0.4586  0.5621
12405SOL    HW237394   6.363   3.525   0.440  0.1158 -0.7617 -1.0807
12406SOL     OW37395   1.907   3.414   8.294  0.4712  0.0731 -0.0134
12406SOL    HW137396   1.945   3.464   8.216 -0.8044  1.2028  0.0641
12406SOL    HW237397   1.811   3.393   8.277  0.7365 -1.6056  0.3497
12407SOL     OW37398   7.588   0.742   4.595  0.2267 -0.0660 -0.1330
12407SOL    HW137399   7.493   0.722   4.619 -0.2697  1.0763 -1.0584
12407SOL    HW237400   7.638   0.656   4.583 -0.5618 -0.6739  0.8202
12408SOL     OW37401   5.320   6.297   0.143  0.7750  0.1091 -1.0580
12408SOL    HW137402   5.277   6.207   0.155 -0.1157  0.6400 -0.1316
12408SOL    HW237403   5.380   6.316   0.220  0.0730  0.7879 -0.6687
12409SOL     OW37404   7.330   5.588   6.760 -0.2172  0.6800  0.0607
12409SOL    HW137405   7.355   5.614   6.666 -0.6554  0.8675 -0.0067
12409SOL    HW237406   7.263   5.654   6.796  1.1444  1.5572  1.0954
12410SOL     OW37407   4.629   1.516   0.125  0.4451  0.3471 -0.4001
12410SOL    HW137408   4.538   1.534   0.088 -0.4042 -1.4312  0.7028
12410SOL    HW237409   4.661   1.597   0.175  0.3150  1.6614 -2.3201
12411SOL     OW37410   2.635   2.247   3.094  0.5026 -0.6729 -0.2406
12411SOL    HW137411   2.697   2.322   3.114  0.2799 -0.7396  0.7590
12411SOL    HW237412   2.541   2.274   3.117  0.4606 -1.3582  0.4598
12412SOL     OW37413   6.028   0.205   7.210 -0.3818 -0.1399 -0.3383
12412SOL    HW137414   6.036   0.170   7.117 -1.1986 -0.5783 -0.2557
12412SOL    HW237415   5.931   0.216   7.233 -0.1721  1.1620  0.0154
12413SOL     OW37416   2.989   4.328   1.972 -0.4624  0.4488 -0.2724
12413SOL    HW137417   3.044   4.405   2.005  2.0899 -0.8503 -1.2048
12413SOL    HW237418   3.031   4.242   2.001 -2.4622 -0.6359 -0.4148
12414SOL     OW37419   5.465   4.542   0.784 -0.0612 -0.1139 -0.2165
12414SOL    HW137420   5.464   4.627   0.733 -0.3657 -0.0017 -0.0286
12414SOL    HW237421   5.495   4.560   0.878 -0.8411 -0.0860  0.0340
12415SOL     OW37422   1.040   5.315   4.544 -0.1608  0.0710  0.1684
12415SOL    HW137423   1.014   5.296   4.449  1.3238  1.1665 -0.4803
12415SOL    HW237424   1.133   5.283   4.560 -0.2380  0.3068  1.1338
12416SOL     OW37425   8.043   6.870   1.168  0.3297 -0.0775 -0.1382
12416SOL    HW137426   8.085   6.834   1.252  0.8896 -0.1548 -0.4403
12416SOL    HW237427   8.059   6.805   1.093 -0.5418 -0.2160 -0.2131
12417SOL     OW37428   1.255   4.938   4.066 -0.2729 -0.1296  0.8664
12417SOL    HW137429   1.347   4.909   4.096 -0.2041  1.7048  2.6863
12417SOL    HW237430   1.244   5.036   4.085 -2.0841  0.0248 -0.7704
12418SOL     OW37431   4.404   2.575   5.909 -0.1728 -0.0909  0.2555
12418SOL    HW137432   4.430   2.597   5.814 -0.5876 -0.7781 -0.0282
12418SOL    HW237433   4.400   2.476   5.919 -2.0537 -0.0210  0.4587
12419SOL     OW37434   2.823   8.218   0.809 -0.3098  0.0747  0.0849
12419SOL    HW137435   2.758   8.210   0.734 -1.4918  2.3973  0.7581
12419SOL    HW237436   2.821   8.135   0.864 -0.7003 -0.9558 -1.4325
12420SOL     OW37437   8.588   7.866   7.303 -0.3458  0.4181  0.0005
12420SOL    HW137438   8.673   7.860   7.354  0.6708  0.9735 -1.5492
12420SOL    HW237439   8.586   7.794   7.233 -0.2854  1.5256 -1.1740
12421SOL     OW37440   0.394   5.738   4.806 -0.3035 -0.3173  0.1996
12421SOL    HW137441   0.381   5.751   4.707 -1.4114 -1.0359  0.2309
12421SOL    HW237442   0.476   5.684   4.822  0.6907  1.0012 -0.2371
12422SOL     OW37443   4.942   5.885   0.681 -0.5407 -0.3399  0.7069
12422SOL    HW137444   4.893   5.837   0.608 -0.3398  0.5556 -0.0450
12422SOL    HW237445   5.040   5.876   0.667 -0.4932  0.5336  0.3586
12423SOL     OW37446   2.721   1.672   8.693 -0.0232  0.5873 -0.0236
12423SOL    HW137447   2.701   1.574   8.698  1.0109  0.4257  1.4545
12423SOL    HW237448   2.635   1.723   8.694 -0.6449 -0.2881 -1.9125
12424SOL     OW37449   2.218   2.859   0.143 -0.7937  0.1941  0.5379
12424SOL    HW137450   2.138   2.917   0.159 -0.3777  0.3653  2.1306
12424SOL    HW237451   2.300   2.917   0.134 -0.6740 -0.0434  0.0579
12425SOL     OW37452   5.847   4.126   0.243 -0.2552 -0.0332 -0.7891
12425SOL    HW137453   5.823   4.214   0.200  0.9887 -0.1006 -1.6692
12425SOL    HW237454   5.905   4.143   0.322  0.9201 -0.0880 -1.6158
12426SOL     OW37455   7.112   4.232   7.870 -0.2782 -0.0835 -0.5048
12426SOL    HW137456   7.058   4.167   7.924 -0.1146 -0.1841 -0.4613
12426SOL    HW237457   7.135   4.191   7.782 -0.3158 -0.0218 -0.5430
12427SOL     OW37458   6.884   5.085   5.861  0.0847 -0.3175 -0.6529
12427SOL    HW137459   6.913   5.056   5.770 -1.3452  1.4446 -1.7139
12427SOL    HW237460   6.854   5.180   5.858 -2.0488 -0.8709  1.1966
12428SOL     OW37461   1.278   3.650   2.552 -0.5580 -0.0912 -0.4019
12428SOL    HW137462   1.210   3.577   2.543 -1.0378  0.6155 -3.5059
12428SOL    HW237463   1.289   3.697   2.465  1.2041  2.3013  0.9771
12429SOL     OW37464   4.607   7.324   0.753 -0.4334  0.4309 -0.2051
12429SOL    HW137465   4.646   7.356   0.667  0.4891 -0.0679  0.0159
12429SOL    HW237466   4.608   7.224   0.755 -2.3151  0.3765 -0.4509
12430SOL     OW37467   7.334   5.110   0.081 -0.6459  0.2304  0.1982
12430SOL    HW137468   7.340   5.100  -0.018 -0.4829  0.6712  0.1644
12430SOL    HW237469   7.273   5.039   0.118 -0.2275 -0.3099 -0.1467
12431SOL     OW37470   7.393   1.420   3.372  0.0259  0.0952 -0.5101
12431SOL    HW137471   7.371   1.322   3.376 -0.1651  0.0375 -2.1426
12431SOL    HW237472   7.427   1.442   3.281  0.9167  1.3977  0.1180
12432SOL     OW37473   6.288   5.720   3.882 -0.2159 -0.7312 -0.4168
12432SOL    HW137474   6.190   5.704   3.891 -0.4443  1.3413  2.1157
12432SOL    HW237475   6.338   5.664   3.948  0.5617 -2.9719 -2.7537
12433SOL     OW37476   3.390   5.963   3.012  0.1609 -0.1683 -0.3839
12433SOL    HW137477   3.473   6.000   3.055 -1.6639  2.3186  1.2321
12433SOL    HW237478   3.382   6.000   2.919 -0.0062  1.0306  0.0890
12434SOL     OW37479   6.576   2.658   5.716 -0.5388  0.0443 -0.1140
12434SOL    HW137480   6.612   2.576   5.672 -1.9443 -0.1874 -0.8981
12434SOL    HW237481   6.645   2.696   5.778  0.6690 -0.8818 -0.8457
12435SOL     OW37482   7.034   4.580   6.826 -0.6984 -0.4994 -0.0948
12435SOL    HW137483   7.085   4.550   6.906  0.4137 -0.5197 -0.7880
12435SOL    HW237484   7.047   4.514   6.752 -0.8486  0.0510 -0.6188
12436SOL     OW37485   7.342   0.536   5.091  0.2820 -0.3295  0.0021
12436SOL    HW137486   7.374   0.614   5.038 -2.1189 -0.1469 -1.3332
12436SOL    HW237487   7.308   0.465   5.030  2.8556 -2.7717  1.1525
12437SOL     OW37488   7.685   8.784   6.486  0.4530 -0.2362 -0.0332
12437SOL    HW137489   7.746   8.712   6.520 -2.8685 -3.1152  0.4533
12437SOL    HW237490   7.649   8.836   6.564 -0.1251 -0.7181  0.0343
12438SOL     OW37491   7.980   0.857   7.793  0.9561  0.3019 -0.1671
12438SOL    HW137492   7.923   0.938   7.802 -0.1318 -0.2374 -1.7372
12438SOL    HW237493   8.073   0.883   7.767  0.7070  1.0552 -0.3101
12439SOL     OW37494   7.167   3.137   8.253  0.2346 -0.1316  0.0318
12439SOL    HW137495   7.168   3.038   8.246  0.6443 -0.0159 -1.9894
12439SOL    HW237496   7.113   3.175   8.178  2.5295  1.2707 -1.0177
12440SOL     OW37497   4.902   3.143   3.615  0.1303  0.4801  0.6062
12440SOL    HW137498   4.879   3.227   3.565  0.5330  1.2007  1.5875
12440SOL    HW237499   4.838   3.071   3.590 -0.0754  1.0096 -0.4433
12441SOL     OW37500   3.244   0.238   5.031 -0.5017  0.1165 -0.0728
12441SOL    HW137501   3.225   0.325   4.986  0.7821 -0.0898 -1.0831
12441SOL    HW237502   3.327   0.198   4.992  0.7732 -0.0334  2.5961
12442SOL     OW37503   3.887   6.514   8.610  0.2296  0.2655  0.5214
12442SOL    HW137504   3.931   6.437   8.564  0.7184 -0.3545  1.9725
12442SOL    HW237505   3.816   6.480   8.672 -1.0355  1.1391 -0.3772
12443SOL     OW37506   5.689   2.372   1.562  0.0488 -0.6451  0.6688
12443SOL    HW137507   5.634   2.300   1.604 -1.3040  1.6236  3.1428
12443SOL    HW237508   5.763   2.398   1.624 -0.5298  1.1842  0.6510
12444SOL     OW37509   1.596   6.693   5.726 -0.2480 -0.0300  0.0036
12444SOL    HW137510   1.640   6.768   5.678  0.7361 -0.0953  0.7766
12444SOL    HW237511   1.546   6.728   5.805  0.1147 -0.1785  0.2986
12445SOL     OW37512   7.877   8.513   7.022 -0.3725 -0.3650  0.1324
12445SOL    HW137513   7.812   8.498   7.096 -0.9115  0.3493 -0.1887
12445SOL    HW237514   7.911   8.425   6.990 -0.7968 -0.7212  0.6376
12446SOL     OW37515   3.073   2.703   0.364  0.1947 -0.1028 -0.1066
12446SOL    HW137516   3.078   2.617   0.414  0.5054 -0.1544 -0.2203
12446SOL    HW237517   3.124   2.694   0.278 -2.0577 -0.7095 -1.4609
12447SOL     OW37518   5.035   3.753   1.258  0.2772 -0.1385  0.7159
12447SOL    HW137519   5.042   3.696   1.339 -2.5217  1.0572  1.9294
12447SOL    HW237520   4.998   3.698   1.182 -0.5618 -0.4292  1.3185
12448SOL     OW37521   6.422   5.993   4.871  0.3911 -0.3844 -0.6463
12448SOL    HW137522   6.504   5.943   4.844 -0.6174 -2.9726  0.7259
12448SOL    HW237523   6.360   6.002   4.793  0.1322 -2.3387 -0.7155
12449SOL     OW37524   4.582   4.551   6.880  0.3598 -0.1966  0.5619
12449SOL    HW137525   4.529   4.631   6.907 -0.3959 -0.8122  0.9560
12449SOL    HW237526   4.643   4.575   6.805 -0.4192  0.5561  0.1495
12450SOL     OW37527   4.937   3.437   8.647 -0.1522 -0.1823  0.0067
12450SOL    HW137528   4.881   3.371   8.598  0.7161 -1.3680  0.5551
12450SOL    HW237529   5.031   3.434   8.612  0.1966 -0.1651  0.8971
12451SOL     OW37530   0.385   7.377   2.539  0.7602 -0.3092  0.2524
12451SOL    HW137531   0.330   7.293   2.544  0.6792 -0.3411 -0.8525
12451SOL    HW237532   0.472   7.357   2.494  0.1228  0.4738 -1.4033
12452SOL     OW37533   2.056   4.900   2.676 -0.3700  0.5469 -0.4747
12452SOL    HW137534   2.002   4.958   2.615 -0.4729  0.9798  0.0189
12452SOL    HW237535   2.088   4.820   2.626  0.1813  1.2625 -1.3010
12453SOL     OW37536   1.388   0.339   0.103  0.0409  0.4414  0.0309
12453SOL    HW137537   1.426   0.316   0.014 -1.1692 -1.7027  0.0039
12453SOL    HW237538   1.309   0.400   0.092  2.2282  3.4821 -0.0168
12454SOL     OW37539   1.143   5.060   7.461 -0.3293  0.0925 -0.4789
12454SOL    HW137540   1.128   5.094   7.368 -0.5964  3.2984  0.5954
12454SOL    HW237541   1.109   5.128   7.526  2.6024 -0.6322  1.9829
12455SOL     OW37542   6.576   4.923   0.453 -0.0096 -0.1413  0.6254
12455SOL    HW137543   6.587   5.007   0.400  1.5480 -0.7668 -0.1032
12455SOL    HW237544   6.497   4.872   0.418 -0.0645  0.3060  0.0795
12456SOL     OW37545   8.292   5.255   3.416 -0.0168  0.2631  0.0577
12456SOL    HW137546   8.332   5.168   3.387 -0.3635  0.3329 -0.6489
12456SOL    HW237547   8.335   5.284   3.501  1.0899  0.0823 -0.4234
12457SOL     OW37548   7.861   7.187   2.908 -0.0299  0.2457  0.5833
12457SOL    HW137549   7.819   7.122   2.845  2.1761 -0.2777 -0.4408
12457SOL    HW237550   7.951   7.214   2.873 -0.1133  2.4778  1.8969
12458SOL     OW37551   7.681   5.046   0.463  0.0154  0.3437 -0.4165
12458SOL    HW137552   7.763   4.999   0.432 -0.2128 -1.1648  1.0906
12458SOL    HW237553   7.631   5.084   0.385  0.7515 -1.0641 -1.5985
12459SOL     OW37554   4.721   3.874   3.381  0.0459 -0.0411 -1.0651
12459SOL    HW137555   4.695   3.960   3.424 -0.9711 -0.3254 -1.0891
12459SOL    HW237556   4.776   3.893   3.300 -1.3733  0.6774 -1.9086
12460SOL     OW37557   2.101   6.253   0.960 -0.0628  0.3603 -0.2669
12460SOL    HW137558   2.080   6.293   0.870 -1.1823 -1.4100 -0.8327
12460SOL    HW237559   2.102   6.153   0.953 -3.0900  0.0126  2.2604
12461SOL     OW37560   6.671   1.590   7.319  0.3438  0.2359  0.2410
12461SOL    HW137561   6.719   1.560   7.401  1.2450  0.9909  0.0082
12461SOL    HW237562   6.593   1.530   7.302 -0.1082  0.3028  1.8695
12462SOL     OW37563   5.337   4.761   4.925  0.8091 -0.2288 -0.0141
12462SOL    HW137564   5.336   4.664   4.903  1.4279 -0.4451  0.8627
12462SOL    HW237565   5.243   4.793   4.942  0.7974 -1.5470  3.2191
12463SOL     OW37566   0.086   3.205   8.167 -0.1839 -0.4749 -0.1690
12463SOL    HW137567   0.034   3.227   8.250 -1.5514 -1.1080 -0.8179
12463SOL    HW237568   0.047   3.256   8.090  0.4554 -0.6200 -0.5880
12464SOL     OW37569   6.319   3.646   4.237  0.3266 -0.3992  1.0615
12464SOL    HW137570   6.272   3.637   4.149 -0.5914 -1.7793  1.6447
12464SOL    HW237571   6.304   3.738   4.274 -2.1754 -0.8407  1.3119
12465SOL     OW37572   6.825   0.411   6.378  0.4947  0.3654 -0.7277
12465SOL    HW137573   6.900   0.466   6.415  1.3029 -0.1718 -1.5265
12465SOL    HW237574   6.742   0.467   6.373  0.0543  0.2461  2.6960
12466SOL     OW37575   3.824   0.224   7.532  0.5415 -0.3754 -0.1709
12466SOL    HW137576   3.914   0.257   7.559  0.3939  0.9993 -1.2563
12466SOL    HW237577   3.753   0.278   7.577  0.1806 -2.3452  1.7868
12467SOL     OW37578   4.730   2.742   7.408  0.3683 -0.0270  0.7040
12467SOL    HW137579   4.823   2.778   7.413  0.5255 -0.4417  0.7756
12467SOL    HW237580   4.725   2.673   7.336  0.5560 -1.2927  1.8640
12468SOL     OW37581   4.691   1.505   2.447  0.8534 -0.3094 -0.1292
12468SOL    HW137582   4.757   1.536   2.379 -0.2099  0.0493 -1.0332
12468SOL    HW237583   4.598   1.527   2.415  0.1756 -2.4208  0.2614
12469SOL     OW37584   8.851   6.675   7.965 -0.3801 -0.4828 -0.2756
12469SOL    HW137585   8.787   6.635   8.031 -0.0715  0.2138  0.4650
12469SOL    HW237586   8.804   6.746   7.914 -0.3326 -0.2973 -0.0635
12470SOL     OW37587   1.971   3.510   4.827 -0.3354  0.2581 -0.3123
12470SOL    HW137588   1.998   3.606   4.830 -1.1124  0.4480  1.2679
12470SOL    HW237589   2.030   3.461   4.762 -1.3648  2.2118 -2.8706
12471SOL     OW37590   4.640   1.209   5.401 -0.1003 -0.1897  0.5984
12471SOL    HW137591   4.553   1.172   5.433  0.0077 -0.8871  0.0973
12471SOL    HW237592   4.700   1.224   5.480 -0.4766 -0.2091  0.8939
12472SOL     OW37593   3.211   0.290   4.471 -0.3590  0.0563 -0.3847
12472SOL    HW137594   3.136   0.354   4.453  0.0817  0.7376  0.2028
12472SOL    HW237595   3.212   0.267   4.568 -0.9620 -1.4171 -0.6951
12473SOL     OW37596   0.784   4.184   6.585  0.1488 -0.4975  0.3675
12473SOL    HW137597   0.762   4.190   6.487 -0.5956  0.1288  0.5642
12473SOL    HW237598   0.770   4.274   6.627  1.2649 -0.5632  0.8909
12474SOL     OW37599   3.802   1.481   3.984 -0.0652 -0.2457  0.4436
12474SOL    HW137600   3.793   1.382   3.972 -0.0639 -0.3020  0.8995
12474SOL    HW237601   3.893   1.503   4.018  0.7346  0.1137 -1.7636
12475SOL     OW37602   3.827   6.587   4.579  0.6401  0.0485 -0.0375
12475SOL    HW137603   3.841   6.500   4.628 -0.3382 -0.2254 -0.2078
12475SOL    HW237604   3.804   6.658   4.645  0.8073  0.0316  0.0408
12476SOL     OW37605   5.642   5.664   4.812 -0.3858 -0.1623 -0.4643
12476SOL    HW137606   5.585   5.605   4.869  2.1930 -3.2176 -0.7772
12476SOL    HW237607   5.650   5.625   4.721  2.8720 -0.4831 -0.1672
12477SOL     OW37608   5.683   5.727   7.979  0.2740  0.5356 -0.3484
12477SOL    HW137609   5.675   5.733   7.879  0.1009  2.0862 -0.2664
12477SOL    HW237610   5.619   5.791   8.021  0.7283  0.2860  0.7450
12478SOL     OW37611   0.590   7.928   5.566  0.1448 -0.7908 -0.8448
12478SOL    HW137612   0.539   7.948   5.483 -1.1649 -1.4256 -0.2117
12478SOL    HW237613   0.558   7.842   5.606  1.4197 -0.9930 -0.1900
12479SOL     OW37614   0.663   7.260   7.679 -0.3465 -1.1577  0.1116
12479SOL    HW137615   0.645   7.355   7.653  0.7503 -0.6820  1.0248
12479SOL    HW237616   0.743   7.226   7.628  0.5687 -0.8807  1.3345
12480SOL     OW37617   4.234   6.679   5.243 -0.0678 -0.3309  0.4402
12480SOL    HW137618   4.302   6.654   5.173  0.1867 -0.3700  0.6984
12480SOL    HW237619   4.273   6.663   5.334 -1.1060 -2.2517  0.5997
12481SOL     OW37620   5.417   0.522   6.575  0.0250 -0.3986  0.0777
12481SOL    HW137621   5.370   0.515   6.487 -0.5208 -0.9504  0.4064
12481SOL    HW237622   5.504   0.473   6.570  0.0622 -0.3063 -0.2016
12482SOL     OW37623   3.162   2.102   6.857 -0.1507 -0.0765 -0.6686
12482SOL    HW137624   3.091   2.120   6.790  0.6731  0.8844 -1.3070
12482SOL    HW237625   3.252   2.115   6.816  0.3878  2.4177  1.0639
12483SOL     OW37626   2.754   4.087   6.184  0.1968 -0.2744  0.3552
12483SOL    HW137627   2.717   3.996   6.163  1.0254 -0.3686 -0.8032
12483SOL    HW237628   2.701   4.157   6.137 -0.4576 -0.1421  1.2687
12484SOL     OW37629   3.762   0.407   1.310 -0.3059 -0.2345  0.1184
12484SOL    HW137630   3.808   0.478   1.257  1.2603 -1.4009 -0.1487
12484SOL    HW237631   3.736   0.443   1.400 -0.9478  1.0991 -0.5771
12485SOL     OW37632   6.234   2.757   7.656  0.3005 -0.0820  0.3108
12485SOL    HW137633   6.202   2.775   7.749  0.9653  0.7767  0.3895
12485SOL    HW237634   6.307   2.689   7.658  0.6537  0.2998  0.4750
12486SOL     OW37635   8.198   1.280   3.796  0.8983 -0.0107 -0.2727
12486SOL    HW137636   8.184   1.218   3.719  1.2852  0.3796 -0.6609
12486SOL    HW237637   8.213   1.373   3.762  0.5222  0.2631  0.2976
12487SOL     OW37638   4.095   0.896   6.075  0.0567 -0.3203 -0.1740
12487SOL    HW137639   4.182   0.940   6.098 -0.1079  1.1960 -2.1901
12487SOL    HW237640   4.052   0.861   6.158  1.0870  1.7028  1.2801
12488SOL     OW37641   2.794   0.482   1.912 -0.3248  0.3796 -0.3975
12488SOL    HW137642   2.881   0.444   1.941 -0.1550  0.5842 -0.6365
12488SOL    HW237643   2.805   0.528   1.823 -0.5888  0.7292 -0.2529
12489SOL     OW37644   7.166   1.356   5.262  0.5373  0.0862  0.2637
12489SOL    HW137645   7.128   1.263   5.257  1.4868 -0.5163  2.8566
12489SOL    HW237646   7.247   1.362   5.204  0.5399 -0.7311  0.1705
12490SOL     OW37647   7.119   4.380   7.291  0.1759  0.0842 -0.6051
12490SOL    HW137648   7.205   4.329   7.293  0.9332  1.2443  1.9806
12490SOL    HW237649   7.139   4.478   7.279 -0.6454  0.4713  0.8739
12491SOL     OW37650   5.590   2.701   6.380  0.4688 -0.0142 -0.1335
12491SOL    HW137651   5.517   2.769   6.386  1.4617  1.0496  0.3862
12491SOL    HW237652   5.601   2.655   6.468  0.9962  0.4621  0.0560
12492SOL     OW37653   5.149   1.336   6.139 -0.5116  0.2227 -0.2115
12492SOL    HW137654   5.208   1.328   6.059 -2.2355 -1.6479 -1.4316
12492SOL    HW237655   5.197   1.302   6.220  0.6259  0.2967 -0.8410
12493SOL     OW37656   0.623   7.530   7.627  0.4670  0.1110  0.8059
12493SOL    HW137657   0.577   7.554   7.542  2.3611 -0.9615 -0.6039
12493SOL    HW237658   0.668   7.611   7.665  0.9829  0.2633 -0.1198
12494SOL     OW37659   3.777   1.115   8.826  0.9091  0.4278  0.6271
12494SOL    HW137660   3.739   1.025   8.848 -1.2525  1.2952  0.6700
12494SOL    HW237661   3.785   1.124   8.727 -0.5449  0.7738  0.5101
12495SOL     OW37662   8.150   5.634   4.673  0.2262 -0.1797  0.7485
12495SOL    HW137663   8.152   5.694   4.753  1.6300  1.8720 -0.7244
12495SOL    HW237664   8.065   5.650   4.622 -0.7074 -1.5470  1.7952
12496SOL     OW37665   5.000   0.222   5.126 -0.0658  1.1720 -0.1874
12496SOL    HW137666   5.093   0.186   5.133  0.2750  2.2281  1.2486
12496SOL    HW237667   4.985   0.262   5.035 -0.0889 -1.4558 -1.4340
12497SOL     OW37668   2.090   4.466   8.815 -0.2378  0.5322  0.5263
12497SOL    HW137669   2.074   4.546   8.872  2.1629  1.3637  0.1557
12497SOL    HW237670   2.188   4.448   8.809 -0.4975 -0.4980 -2.0460
12498SOL     OW37671   5.769   7.160   7.037  0.3138 -0.4457  0.8025
12498SOL    HW137672   5.862   7.154   7.001  0.3206 -2.0036  1.0129
12498SOL    HW237673   5.773   7.194   7.132  0.7842 -1.5289  1.1892
12499SOL     OW37674   6.415   1.890   7.197 -0.1219  0.2974  0.0944
12499SOL    HW137675   6.494   1.877   7.257  0.5020  0.6682 -0.6399
12499SOL    HW237676   6.375   1.980   7.214  1.1380  1.1495 -1.2750
12500SOL     OW37677   8.664   5.448   6.246  0.2266 -0.0875 -0.4964
12500SOL    HW137678   8.761   5.448   6.273  0.5072  1.6813 -1.3715
12500SOL    HW237679   8.642   5.363   6.199  1.1630 -0.8169  0.3494
12501SOL     OW37680   4.359   3.499   8.654  0.2815  0.5377  0.2238
12501SOL    HW137681   4.312   3.575   8.610  0.6604  1.1907  0.9129
12501SOL    HW237682   4.351   3.507   8.753  2.1507  0.8977  0.3844
12502SOL     OW37683   2.737   5.899   5.890 -0.0618 -0.5810 -0.2839
12502SOL    HW137684   2.772   5.809   5.866  1.3629 -0.4445  1.1229
12502SOL    HW237685   2.657   5.890   5.949  0.9297 -0.9660  1.0372
12503SOL     OW37686   4.378   7.464   7.189  0.2339 -0.2890 -0.1290
12503SOL    HW137687   4.430   7.418   7.117 -1.5905 -0.9929 -1.0509
12503SOL    HW237688   4.294   7.502   7.150  0.2637  1.2313  1.2196
12504SOL     OW37689   4.696   4.154   4.145  0.0160 -0.3086  0.1965
12504SOL    HW137690   4.748   4.182   4.065  0.3555  1.4438  0.9892
12504SOL    HW237691   4.756   4.152   4.225 -0.4668 -1.3518  0.5526
12505SOL     OW37692   0.917   4.500   3.824 -0.2125 -0.0490 -0.1000
12505SOL    HW137693   0.855   4.562   3.873 -0.3322  0.2457 -0.6191
12505SOL    HW237694   0.884   4.487   3.731  1.6083  1.8025 -1.0870
12506SOL     OW37695   3.757   6.612   2.620 -0.1189 -1.1421  0.6972
12506SOL    HW137696   3.718   6.520   2.612  1.0723 -1.6035 -0.1416
12506SOL    HW237697   3.685   6.677   2.644 -1.2310 -2.0756  0.0041
12507SOL     OW37698   5.955   7.505   8.485  0.4384 -0.0032  0.4868
12507SOL    HW137699   5.980   7.578   8.421  0.5237 -0.2349  0.2534
12507SOL    HW237700   5.856   7.492   8.484  0.5620 -1.0684 -0.7810
12508SOL     OW37701   4.390   8.166   2.261  0.4732 -0.3610  0.2612
12508SOL    HW137702   4.298   8.186   2.295  0.5463  1.0679 -0.2897
12508SOL    HW237703   4.393   8.178   2.161  1.4094  0.2955  0.3487
12509SOL     OW37704   3.101   1.838   1.504 -0.0718 -0.1672  0.1115
12509SOL    HW137705   3.127   1.742   1.495 -0.5142 -0.1460 -2.0224
12509SOL    HW237706   3.001   1.845   1.506 -0.0666  0.2929 -0.7801
12510SOL     OW37707   6.287   7.865   7.925 -0.2961  0.1315 -0.8259
12510SOL    HW137708   6.252   7.773   7.940 -0.3988  0.1442 -0.9809
12510SOL    HW237709   6.285   7.886   7.827  2.0240 -0.6086 -1.0876
12511SOL     OW37710   2.433   7.485   1.705 -0.1770 -0.2214  0.0104
12511SOL    HW137711   2.492   7.481   1.786  1.2562 -0.5949 -1.0204
12511SOL    HW237712   2.480   7.443   1.627 -1.3731  0.4646 -1.1182
12512SOL     OW37713   4.662   2.691   2.546  0.3496 -0.3423 -0.5670
12512SOL    HW137714   4.659   2.728   2.639  0.2112 -1.0750 -0.2755
12512SOL    HW237715   4.570   2.690   2.507  0.4674  0.4069 -0.9045
12513SOL     OW37716   5.067   1.241   7.634 -0.2245 -0.1945 -0.2529
12513SOL    HW137717   5.137   1.250   7.564  0.0911  1.0984  0.2049
12513SOL    HW237718   5.041   1.331   7.667 -1.4087 -0.7089  0.2833
12514SOL     OW37719   6.679   8.429   0.046 -0.4296  0.2992  0.7273
12514SOL    HW137720   6.591   8.449   0.090 -1.3189  1.3250 -1.3854
12514SOL    HW237721   6.751   8.429   0.115 -1.8066  1.2934  2.2544
12515SOL     OW37722   3.006   7.304   3.972 -0.2617  0.3335  0.6473
12515SOL    HW137723   2.920   7.355   3.979 -0.9937 -0.9859  1.6270
12515SOL    HW237724   2.997   7.234   3.902  0.6334  1.2862 -0.4643
12516SOL     OW37725   3.626   2.870   0.830 -0.3206  0.0929  0.5566
12516SOL    HW137726   3.717   2.851   0.791 -0.5524 -2.1016  0.9872
12516SOL    HW237727   3.587   2.786   0.866 -3.0848  0.7138 -0.7300
12517SOL     OW37728   6.808   1.342   8.185 -0.1621  0.6827  0.3357
12517SOL    HW137729   6.743   1.336   8.260 -0.0358  1.5657  0.5336
12517SOL    HW237730   6.782   1.418   8.124  0.7166  1.1031  0.4675
12518SOL     OW37731   4.680   2.148   3.600  0.3633 -0.2294 -0.1181
12518SOL    HW137732   4.644   2.078   3.662 -2.1703  1.6105  0.6753
12518SOL    HW237733   4.666   2.119   3.506  0.2597 -1.2273  0.1906
12519SOL     OW37734   8.284   6.621   0.526 -0.3307  0.0763 -0.0460
12519SOL    HW137735   8.277   6.607   0.427 -0.7423  0.7479 -0.1191
12519SOL    HW237736   8.290   6.719   0.545 -0.7537 -0.0209  0.6211
12520SOL     OW37737   7.870   5.532   2.423  0.0573 -0.0392  0.2721
12520SOL    HW137738   7.832   5.494   2.507  1.9378 -0.9416  0.7502
12520SOL    HW237739   7.968   5.547   2.433  0.2160  0.4476 -1.5483
12521SOL     OW37740   4.023   4.250   3.130  0.1618 -0.1981  0.2504
12521SOL    HW137741   3.969   4.319   3.082  1.8599  1.8828  1.1780
12521SOL    HW237742   4.099   4.221   3.072 -1.0526 -2.0892 -0.5054
12522SOL     OW37743   6.521   7.157   2.744  0.2998  0.3747 -0.4958
12522SOL    HW137744   6.556   7.090   2.678  2.3937  0.4947  0.4071
12522SOL    HW237745   6.489   7.238   2.694  1.6527  0.3856 -1.4005
12523SOL     OW37746   8.305   2.617   3.149 -0.2012 -0.4479 -0.3857
12523SOL    HW137747   8.211   2.623   3.183 -0.2604  0.5116 -0.6869
12523SOL    HW237748   8.366   2.598   3.226 -0.6939 -1.7316 -0.2816
12524SOL     OW37749   5.379   1.638   6.297 -0.1875  0.0171  0.2829
12524SOL    HW137750   5.306   1.586   6.341  0.2957  0.0905  1.1873
12524SOL    HW237751   5.339   1.717   6.250 -0.8063 -0.5746 -0.2022
12525SOL     OW37752   7.862   3.507   3.369 -0.2887  0.0758 -0.2708
12525SOL    HW137753   7.911   3.511   3.456  0.3617  0.4360 -0.6471
12525SOL    HW237754   7.847   3.412   3.343  0.9286 -0.0495 -0.5513
12526SOL     OW37755   0.050   6.841   0.557  0.2960  0.1882  0.1664
12526SOL    HW137756   0.111   6.889   0.620 -0.7540 -0.2081  1.5295
12526SOL    HW237757   0.040   6.895   0.473 -0.7359  2.3181  1.5816
12527SOL     OW37758   3.693   3.459   8.755 -0.1122  0.3588 -0.1930
12527SOL    HW137759   3.773   3.425   8.803 -1.6395 -0.8096  1.6593
12527SOL    HW237760   3.690   3.418   8.663  1.6085  0.8069 -0.4895
12528SOL     OW37761   6.831   8.064   0.517  0.9426 -0.2028  0.2113
12528SOL    HW137762   6.808   7.975   0.557  1.8536 -1.2883 -1.5259
12528SOL    HW237763   6.774   8.080   0.437  0.7346  0.8237  0.5574
12529SOL     OW37764   8.658   3.781   3.529  0.6186 -0.1085 -0.0874
12529SOL    HW137765   8.688   3.689   3.555 -0.4025 -0.0319  1.5154
12529SOL    HW237766   8.695   3.847   3.594 -2.9811 -0.0319  2.1601
12530SOL     OW37767   0.672   1.484   4.259 -0.5292  0.2587 -0.2222
12530SOL    HW137768   0.751   1.430   4.230  0.4293  2.1411 -1.2949
12530SOL    HW237769   0.590   1.452   4.210  0.1539  0.2628 -1.3984
12531SOL     OW37770   4.528   5.462   1.806 -0.0997 -0.3870  0.1005
12531SOL    HW137771   4.454   5.505   1.754  0.8760  0.0673 -0.9497
12531SOL    HW237772   4.493   5.381   1.853 -1.2784 -0.1317 -0.3002
12532SOL     OW37773   4.727   7.932   3.745 -0.0304 -1.2317 -0.2374
12532SOL    HW137774   4.802   7.946   3.810  0.2898 -1.8781 -0.4664
12532SOL    HW237775   4.644   7.906   3.795 -0.4010  0.4582  0.1193
12533SOL     OW37776   7.758   4.916   4.805 -0.5467  0.4513  0.1269
12533SOL    HW137777   7.766   5.010   4.840 -1.2737  0.6241 -0.1484
12533SOL    HW237778   7.743   4.919   4.706  0.0750  0.0145  0.0114
12534SOL     OW37779   5.505   6.400   5.721 -0.1828 -0.4406  0.2498
12534SOL    HW137780   5.460   6.314   5.695 -1.4403  0.5620 -0.9971
12534SOL    HW237781   5.526   6.397   5.819  0.3586 -2.4014  0.1188
12535SOL     OW37782   0.670   8.785   6.199 -0.1358 -0.1561 -0.4505
12535SOL    HW137783   0.585   8.790   6.148 -0.4884  0.6834  0.1897
12535SOL    HW237784   0.746   8.770   6.136 -0.8489 -1.9394 -0.9246
12536SOL     OW37785   0.011   0.281   4.737  0.1594 -0.1434  0.0983
12536SOL    HW137786   0.053   0.371   4.752 -0.9621  0.5543 -0.7388
12536SOL    HW237787   0.068   0.228   4.675  1.2846 -0.3726  1.2912
12537SOL     OW37788   8.134   2.925   8.275  0.3969 -0.3710  0.2743
12537SOL    HW137789   8.118   2.964   8.366  0.2190 -1.0933  0.5598
12537SOL    HW237790   8.190   2.842   8.284 -0.0347 -0.7254 -0.2205
12538SOL     OW37791   8.235   4.585   8.097 -0.1175 -0.2987  0.9751
12538SOL    HW137792   8.151   4.546   8.135 -0.6452 -0.4892 -0.3675
12538SOL    HW237793   8.287   4.629   8.171 -3.1073  3.0633  1.3610
12539SOL     OW37794   3.483   3.927   7.742 -0.2135  0.1942  0.2160
12539SOL    HW137795   3.389   3.896   7.730 -0.3634  0.7115 -0.0035
12539SOL    HW237796   3.545   3.849   7.734 -0.6233 -0.1570  0.4067
12540SOL     OW37797   3.180   6.438   1.502 -0.4833  0.0672 -0.3050
12540SOL    HW137798   3.187   6.504   1.577 -0.7076  1.0491 -1.1296
12540SOL    HW237799   3.237   6.358   1.522 -0.3425  0.4302  0.7870
12541SOL     OW37800   2.873   5.079   5.672  0.4286  0.4693 -0.3088
12541SOL    HW137801   2.948   5.013   5.676 -0.4734 -0.4786  2.7470
12541SOL    HW237802   2.906   5.169   5.701  0.3061 -0.0748  1.5913
12542SOL     OW37803   0.376   1.330   7.156 -0.4398  1.1604 -0.0613
12542SOL    HW137804   0.299   1.371   7.206  0.4572 -0.0011  2.4204
12542SOL    HW237805   0.448   1.305   7.220  1.6632  1.3239 -2.2117
12543SOL     OW37806   1.835   1.413   7.308  0.1388  0.0957  0.7989
12543SOL    HW137807   1.879   1.480   7.247 -0.0653  0.0661  0.6192
12543SOL    HW237808   1.893   1.331   7.314  0.2475  0.1708  0.7891
12544SOL     OW37809   7.024   8.800   8.515  0.2364 -0.2876 -0.0904
12544SOL    HW137810   7.108   8.811   8.462  0.8677  2.0767  1.2632
12544SOL    HW237811   6.963   8.877   8.498 -0.8799 -1.0486  0.3284
12545SOL     OW37812   3.148   1.411   2.994  0.6739  0.1808 -0.2730
12545SOL    HW137813   3.123   1.415   3.090 -0.1589 -0.4188 -0.4556
12545SOL    HW237814   3.211   1.334   2.979 -0.4009 -0.6917 -0.4502
12546SOL     OW37815   2.370   3.778   7.720  0.8759 -0.0173  0.3986
12546SOL    HW137816   2.336   3.752   7.811 -1.2833 -0.0156 -0.3614
12546SOL    HW237817   2.452   3.724   7.699  2.0328  0.7074  2.7190
12547SOL     OW37818   6.154   3.104   1.672  0.2852 -0.0500 -0.6251
12547SOL    HW137819   6.240   3.092   1.623  0.8075 -0.3418  0.3414
12547SOL    HW237820   6.093   3.163   1.618  0.9794 -0.0632 -1.4419
12548SOL     OW37821   8.034   8.840   6.203 -0.2615 -0.2752 -0.3830
12548SOL    HW137822   7.994   8.762   6.250  0.7165  0.4458  1.7525
12548SOL    HW237823   8.116   8.811   6.153  1.2699 -0.3803  2.0227
12549SOL     OW37824   2.436   8.692   2.281  0.2706  0.3079 -0.3590
12549SOL    HW137825   2.525   8.705   2.238  0.0353 -0.4257 -1.1156
12549SOL    HW237826   2.367   8.673   2.210 -0.8442  2.5279  0.0455
12550SOL     OW37827   2.565   6.260   7.200  0.2578 -0.1955 -0.2331
12550SOL    HW137828   2.620   6.279   7.118 -0.4333 -1.8081 -1.1241
12550SOL    HW237829   2.610   6.188   7.253 -0.8950 -1.4735 -0.9317
12551SOL     OW37830   2.223   8.448   8.533 -0.0687 -0.5775 -0.1171
12551SOL    HW137831   2.268   8.367   8.569 -0.2932 -0.0101  1.5044
12551SOL    HW237832   2.152   8.421   8.468  0.2170 -1.6382 -0.0029
12552SOL     OW37833   2.538   1.684   6.463  0.0212 -0.0479 -0.4496
12552SOL    HW137834   2.453   1.650   6.423 -0.0633 -0.5750  0.1787
12552SOL    HW237835   2.589   1.609   6.503 -0.1619  0.5353  0.9470
12553SOL     OW37836   2.951   3.254   5.706 -0.2057  0.5027  0.4678
12553SOL    HW137837   2.929   3.316   5.631 -1.2741 -0.7426 -0.3006
12553SOL    HW237838   2.873   3.247   5.768  0.1800  0.5043  0.9595
12554SOL     OW37839   1.968   3.992   2.588 -0.5424  0.1780  0.8187
12554SOL    HW137840   1.891   4.014   2.529  0.3961  1.1579 -0.0865
12554SOL    HW237841   1.949   3.908   2.639 -1.0729 -1.1630 -1.4542
12555SOL     OW37842   8.588   5.261   3.823 -0.2360 -0.3840  0.2956
12555SOL    HW137843   8.555   5.234   3.913 -1.0058  0.1922  0.1907
12555SOL    HW237844   8.511   5.280   3.763  0.2372  2.2916  0.4356
12556SOL     OW37845   5.865   7.581   6.176  0.0008 -0.4609  0.2541
12556SOL    HW137846   5.803   7.513   6.217  0.3181 -0.2138  1.1679
12556SOL    HW237847   5.815   7.634   6.108 -0.2764 -1.5558 -0.4189
12557SOL     OW37848   5.700   6.183   0.834 -0.2149 -0.0308  0.2954
12557SOL    HW137849   5.757   6.150   0.759 -0.3884  2.1266 -0.8634
12557SOL    HW237850   5.663   6.105   0.885  2.0135 -1.5049 -0.2223
12558SOL     OW37851   3.126   2.105   3.522  0.1001  0.0655 -0.2701
12558SOL    HW137852   3.030   2.125   3.542 -0.4813 -2.6618  0.0707
12558SOL    HW237853   3.142   2.007   3.528  2.8541  0.3851 -0.7538
12559SOL     OW37854   6.877   0.203   3.386 -0.3197 -0.0472 -0.9643
12559SOL    HW137855   6.803   0.166   3.330  0.5772 -1.0037 -1.5410
12559SOL    HW237856   6.917   0.283   3.340 -0.6248  0.1326 -0.9185
12560SOL     OW37857   0.582   4.674   7.187  0.3498  0.4909  0.0778
12560SOL    HW137858   0.672   4.632   7.178  0.0372  0.0293 -1.1556
12560SOL    HW237859   0.521   4.614   7.239  0.4744  0.3432  0.0510
12561SOL     OW37860   2.388   5.175   0.949  0.2834 -0.2770  0.2449
12561SOL    HW137861   2.486   5.188   0.960  0.3471 -1.3122  1.0764
12561SOL    HW237862   2.354   5.115   1.022 -1.4317  2.1224  1.5352
12562SOL     OW37863   6.425   7.210   8.235 -0.4341 -0.2535  0.3967
12562SOL    HW137864   6.335   7.167   8.247 -0.5909 -0.3718 -1.1007
12562SOL    HW237865   6.413   7.303   8.203 -0.0108 -0.2371  0.2884
12563SOL     OW37866   4.308   6.259   4.932 -0.2733 -0.1588  0.0983
12563SOL    HW137867   4.251   6.339   4.954  0.0055  0.5128 -1.5059
12563SOL    HW237868   4.250   6.186   4.895 -0.4984 -0.6572  1.3743
12564SOL     OW37869   0.609   8.242   3.404 -0.2332 -0.3446 -0.0944
12564SOL    HW137870   0.560   8.155   3.404 -0.9504 -0.0014 -2.2264
12564SOL    HW237871   0.548   8.315   3.374  0.0374  1.1485  2.7108
12565SOL     OW37872   8.691   4.016   5.735 -0.4390 -0.3780  0.4106
12565SOL    HW137873   8.603   3.997   5.693 -0.5633 -1.2387  1.0353
12565SOL    HW237874   8.704   4.114   5.743 -0.7545 -0.2098 -0.8915
12566SOL     OW37875   8.528   6.471   7.856 -0.0245 -0.1888 -0.2629
12566SOL    HW137876   8.495   6.505   7.945  1.0104 -0.6784  0.3294
12566SOL    HW237877   8.594   6.397   7.872 -1.0568 -1.4266 -1.4809
12567SOL     OW37878   1.903   0.603   2.040 -0.5626 -0.4131  0.3835
12567SOL    HW137879   1.863   0.608   2.131 -1.5290 -0.7456 -0.0152
12567SOL    HW237880   1.934   0.510   2.022  1.1130 -0.0122  0.9680
12568SOL     OW37881   4.396   2.880   3.462  0.4372  0.1431  0.1282
12568SOL    HW137882   4.425   2.789   3.493  0.1371  0.6792  2.0800
12568SOL    HW237883   4.322   2.913   3.520 -2.1643  0.0756 -2.8599
12569SOL     OW37884   6.375   6.449   2.035  0.0245  0.0316  0.6755
12569SOL    HW137885   6.404   6.539   2.003  1.0251 -0.0228  1.3664
12569SOL    HW237886   6.307   6.411   1.973  1.6993  0.0154 -1.2388
12570SOL     OW37887   1.386   1.950   4.843  0.5413 -0.3880  0.4909
12570SOL    HW137888   1.314   2.018   4.839  1.3482  0.5354  1.0827
12570SOL    HW237889   1.434   1.946   4.755  1.5023  0.9783  0.9215
12571SOL     OW37890   2.825   3.144   6.722  0.2245  0.4142 -0.1866
12571SOL    HW137891   2.749   3.131   6.786  0.9690 -0.1621  0.5962
12571SOL    HW237892   2.814   3.232   6.674  1.0751  2.2743  2.7674
12572SOL     OW37893   0.781   8.416   7.052  0.2081 -0.1181  0.2582
12572SOL    HW137894   0.710   8.385   7.115 -0.4442 -0.4676 -0.6319
12572SOL    HW237895   0.739   8.471   6.980  0.7910 -0.5765 -0.4419
12573SOL     OW37896   2.555   4.157   8.012  0.5145 -0.2543 -0.2207
12573SOL    HW137897   2.611   4.220   7.959  0.1313 -0.9224 -1.4636
12573SOL    HW237898   2.513   4.090   7.951 -1.5799  0.1695  0.6529
12574SOL     OW37899   0.339   6.998   7.812  0.4229  0.1928 -0.2781
12574SOL    HW137900   0.291   7.037   7.733 -2.3444 -2.3301 -0.0220
12574SOL    HW237901   0.335   7.063   7.888 -0.5312  1.0256 -1.0078
12575SOL     OW37902   8.414   8.489   7.288  0.5407 -0.3334 -0.2534
12575SOL    HW137903   8.417   8.507   7.190 -0.1129  1.4204  0.0075
12575SOL    HW237904   8.333   8.532   7.327  0.2342 -1.8956  0.9105
12576SOL     OW37905   3.230   2.266   0.505  0.0539 -0.4913  0.0198
12576SOL    HW137906   3.303   2.335   0.499  0.2983 -0.4538  2.3874
12576SOL    HW237907   3.161   2.296   0.571 -0.7530 -1.7173 -0.2395
12577SOL     OW37908   0.244   5.904   2.277  0.7015  0.6372 -0.2891
12577SOL    HW137909   0.298   5.842   2.334 -0.2631  1.3750  1.5227
12577SOL    HW237910   0.270   5.999   2.296  1.4442  0.8946 -2.2787
12578SOL     OW37911   0.243   2.836   3.282 -0.2225 -0.8845  0.2923
12578SOL    HW137912   0.169   2.805   3.342  0.1704  0.9597  1.8187
12578SOL    HW237913   0.205   2.885   3.204 -0.6367 -0.8696  0.5036
12579SOL     OW37914   2.550   2.091   1.416  0.1596 -0.0957 -0.2990
12579SOL    HW137915   2.470   2.043   1.451 -0.6035 -0.4949 -2.4052
12579SOL    HW237916   2.584   2.044   1.334  1.2914  1.2227 -0.6321
12580SOL     OW37917   3.495   2.470   5.698  0.4146  0.4542  0.1141
12580SOL    HW137918   3.434   2.514   5.632  0.0348  1.5060  1.1274
12580SOL    HW237919   3.441   2.414   5.762  0.4671  1.4359  1.0532
12581SOL     OW37920   7.407   2.434   1.493 -0.5888  0.1395 -0.3813
12581SOL    HW137921   7.492   2.486   1.485 -0.1193 -0.7266 -1.1430
12581SOL    HW237922   7.330   2.493   1.467 -0.0667  0.4618 -1.2352
12582SOL     OW37923   6.416   7.192   0.573  0.2888 -0.3087 -0.5008
12582SOL    HW137924   6.397   7.224   0.666  0.9287 -1.1325 -0.0757
12582SOL    HW237925   6.348   7.125   0.547 -1.2469  1.5370 -1.5155
12583SOL     OW37926   5.859   6.315   5.636 -0.4621 -0.6111  0.2391
12583SOL    HW137927   5.841   6.260   5.555 -0.1661 -1.9594  1.0550
12583SOL    HW237928   5.823   6.407   5.622  0.9953 -0.3051 -2.0453
12584SOL     OW37929   3.674   2.328   1.334  0.5270  0.2642 -0.6321
12584SOL    HW137930   3.724   2.281   1.406 -2.5129 -2.9769 -0.3788
12584SOL    HW237931   3.708   2.297   1.245 -0.1038 -0.9453 -0.4740
12585SOL     OW37932   7.701   7.160   8.668  0.2717  0.4313 -0.4848
12585SOL    HW137933   7.710   7.145   8.570  1.0125 -0.4953 -0.2923
12585SOL    HW237934   7.660   7.080   8.711 -0.8568  1.1711 -0.1440
12586SOL     OW37935   1.601   5.628   7.644  0.4779 -0.3423 -0.0514
12586SOL    HW137936   1.631   5.723   7.636  1.7485 -0.6325  0.9600
12586SOL    HW237937   1.508   5.620   7.608 -0.2400  1.5910  1.1975
12587SOL     OW37938   4.555   2.799   1.617  0.1689 -0.5443  0.0404
12587SOL    HW137939   4.550   2.706   1.582  3.5847 -0.6444 -0.5015
12587SOL    HW237940   4.535   2.799   1.715  2.2061 -2.3030  0.5384
12588SOL     OW37941   6.661   8.069   0.285  0.5431  0.1423 -0.0679
12588SOL    HW137942   6.675   8.052   0.187  2.2647  0.7768  0.0251
12588SOL    HW237943   6.609   8.153   0.297 -1.0551 -0.7591 -0.4275
12589SOL     OW37944   8.106   8.437   7.860  0.2714  0.0650  0.6556
12589SOL    HW137945   8.164   8.412   7.782  0.0960 -0.7312  0.7691
12589SOL    HW237946   8.128   8.378   7.938 -0.2045  0.2264  0.9155
12590SOL     OW37947   0.538   8.604   3.831 -0.7692  0.3065 -0.1955
12590SOL    HW137948   0.503   8.663   3.758  0.7346  1.1896 -0.2442
12590SOL    HW237949   0.602   8.655   3.888  0.2101 -1.1396  0.0702
12591SOL     OW37950   7.405   5.526   3.767  0.4951 -0.4384  1.2154
12591SOL    HW137951   7.429   5.612   3.812  0.8619 -1.3843  2.9483
12591SOL    HW237952   7.487   5.468   3.761  0.3778 -0.4626 -0.4470
12592SOL     OW37953   6.872   0.110   8.352  0.2276  0.3018 -0.0834
12592SOL    HW137954   6.785   0.158   8.342 -0.2042 -0.9175 -2.9271
12592SOL    HW237955   6.947   0.175   8.337 -0.2517  0.7820 -0.4463
12593SOL     OW37956   3.673   5.025   3.689  0.2282 -0.0830 -0.4993
12593SOL    HW137957   3.605   5.054   3.757  0.3431 -0.1297 -0.3636
12593SOL    HW237958   3.724   5.105   3.657 -0.1653  0.0093 -0.9028
12594SOL     OW37959   7.228   8.753   6.301  0.1904  0.2117 -0.5153
12594SOL    HW137960   7.325   8.736   6.319  0.2371  0.7943 -0.1924
12594SOL    HW237961   7.177   8.667   6.309  0.5235  0.0900  0.3727
12595SOL     OW37962   4.724   2.510   7.184  0.4972 -0.5244  0.2415
12595SOL    HW137963   4.784   2.460   7.247  0.3727 -0.2380  0.5898
12595SOL    HW237964   4.650   2.450   7.153  1.0655 -0.9370 -0.3353
12596SOL     OW37965   1.912   5.097   5.653  0.4059 -0.1628 -0.6921
12596SOL    HW137966   1.874   5.143   5.734  1.3838 -1.6603  0.6821
12596SOL    HW237967   1.987   5.038   5.681  0.8711 -0.6177 -2.7529
12597SOL     OW37968   8.697   6.752   2.141 -0.2660  0.1639  0.0398
12597SOL    HW137969   8.775   6.810   2.163 -0.1863  0.5095 -1.0782
12597SOL    HW237970   8.637   6.800   2.077 -0.3189 -0.8739 -0.7305
12598SOL     OW37971   4.689   6.569   5.793  0.3512  0.3213 -0.0113
12598SOL    HW137972   4.717   6.546   5.700  2.0599  1.7744  0.0873
12598SOL    HW237973   4.653   6.662   5.795  1.0295  0.5742  0.8945
12599SOL     OW37974   6.147   5.197   1.819 -0.2256 -0.3172  0.4278
12599SOL    HW137975   6.048   5.193   1.833 -0.3075  0.9403  0.3059
12599SOL    HW237976   6.185   5.274   1.870  0.1946  1.2133 -2.0255
12600SOL     OW37977   6.872   8.293   2.262  0.0740 -0.1015  0.2524
12600SOL    HW137978   6.917   8.213   2.222 -0.5242 -0.3640  0.0999
12600SOL    HW237979   6.833   8.350   2.190 -1.9740 -1.1436  0.4678
12601SOL     OW37980   3.368   7.032   3.272  0.4020 -0.1260  0.0404
12601SOL    HW137981   3.396   6.936   3.272 -1.1077 -0.5906 -0.7745
12601SOL    HW237982   3.358   7.064   3.178  2.7986  1.4647  0.2201
12602SOL     OW37983   3.767   3.251   2.046 -0.1588 -0.6153 -0.3760
12602SOL    HW137984   3.761   3.308   2.128 -0.9680 -0.4693 -0.5224
12602SOL    HW237985   3.785   3.309   1.966 -3.9670 -0.0389 -1.0150
12603SOL     OW37986   0.161   7.130   7.590  0.0063 -0.2881 -0.5613
12603SOL    HW137987   0.198   7.223   7.591  0.4883 -0.4709 -0.8866
12603SOL    HW237988   0.164   7.094   7.497 -0.5493 -0.4821 -0.5041
12604SOL     OW37989   8.498   8.676   6.337 -0.0669 -0.1178 -0.4108
12604SOL    HW137990   8.467   8.668   6.432 -0.5593 -2.3067 -0.7034
12604SOL    HW237991   8.585   8.628   6.326  0.0517  0.2232 -1.0517
12605SOL     OW37992   0.140   5.649   7.488  0.0565  0.1322 -0.1074
12605SOL    HW137993   0.191   5.637   7.402  2.8565  1.5193  1.2127
12605SOL    HW237994   0.066   5.713   7.474 -0.7774 -1.1411 -1.8937
12606SOL     OW37995   4.689   5.203   1.868  0.3105  0.0533 -0.2425
12606SOL    HW137996   4.644   5.260   1.937 -1.5156 -1.2645 -0.2702
12606SOL    HW237997   4.620   5.159   1.811  1.7415 -0.3444 -1.7364
12607SOL     OW37998   5.378   7.261   3.737  0.1321  0.2370 -0.0052
12607SOL    HW137999   5.364   7.294   3.830  0.4156 -0.2096  0.1977
12607SOL    HW238000   5.344   7.329   3.672  2.7437  1.9742  0.3292
12608SOL     OW38001   2.897   7.935   5.240 -0.4650 -0.2224 -0.2032
12608SOL    HW138002   2.809   7.962   5.278 -0.0300  1.2991 -0.1959
12608SOL    HW238003   2.955   8.016   5.231  0.5750 -1.0445 -1.1386
12609SOL     OW38004   3.704   7.770   7.747  0.4251 -0.3072 -0.0716
12609SOL    HW138005   3.784   7.826   7.723 -0.6398  1.6268  0.6555
12609SOL    HW238006   3.724   7.717   7.829  1.0322 -0.0331 -0.0333
12610SOL     OW38007   1.957   7.238   7.740 -0.0633  0.2500 -0.1758
12610SOL    HW138008   2.003   7.209   7.656  0.9927 -0.9826  0.7917
12610SOL    HW238009   2.023   7.281   7.801 -0.2389 -1.2418  1.1065
12611SOL     OW38010   8.695   3.435   4.038  0.2847  0.2455  0.0393
12611SOL    HW138011   8.719   3.417   4.134 -0.0125  1.1307  0.2903
12611SOL    HW238012   8.736   3.522   4.010 -0.9613  0.7989 -0.1326
12612SOL     OW38013   6.998   3.833   4.194 -0.4298 -0.0933 -0.4189
12612SOL    HW138014   6.928   3.791   4.252 -0.2565 -0.5679 -0.5472
12612SOL    HW238015   7.035   3.764   4.132 -1.0592  0.5415 -1.5405
12613SOL     OW38016   8.011   3.382   0.986  0.6491  0.0782 -0.6772
12613SOL    HW138017   7.921   3.418   0.961  0.1821 -0.0408  0.7579
12613SOL    HW238018   8.034   3.410   1.079  2.0061 -0.0936 -0.9352
12614SOL     OW38019   4.170   1.360   8.250 -0.5914  0.0450 -0.2663
12614SOL    HW138020   4.154   1.445   8.200  0.2606 -0.7039 -1.9101
12614SOL    HW238021   4.141   1.282   8.194 -0.5354 -0.8061  0.8413
12615SOL     OW38022   2.196   5.013   3.553  0.2968 -0.4711 -0.0171
12615SOL    HW138023   2.100   5.029   3.529  0.1010  1.4469  1.7453
12615SOL    HW238024   2.250   5.007   3.469 -1.5644 -3.8727 -1.1641
12616SOL     OW38025   3.089   7.552   2.994  0.1626  0.3362 -0.0668
12616SOL    HW138026   3.001   7.585   2.960  0.1513  0.1433 -0.2254
12616SOL    HW238027   3.075   7.507   3.083 -0.1195 -0.9210 -0.7270
12617SOL     OW38028   5.305   0.295   7.448  0.6972 -0.0576 -0.1789
12617SOL    HW138029   5.383   0.301   7.511 -0.3065 -0.9915  1.2019
12617SOL    HW238030   5.334   0.253   7.363  1.6345 -0.7097  0.4427
12618SOL     OW38031   5.398   7.232   4.685  0.0155  0.0861 -0.2106
12618SOL    HW138032   5.427   7.257   4.592 -0.9065  1.9080 -0.0572
12618SOL    HW238033   5.298   7.226   4.687  0.0280  0.1403  0.6823
12619SOL     OW38034   3.890   4.110   2.763 -0.3208 -0.2212 -0.4274
12619SOL    HW138035   3.933   4.195   2.734 -1.4328  1.0041  1.2985
12619SOL    HW238036   3.921   4.035   2.705  1.7755  1.0993 -1.1088
12620SOL     OW38037   5.238   2.847   2.644 -0.0078 -0.0617  0.2302
12620SOL    HW138038   5.239   2.786   2.565 -2.7761 -0.1999  0.2186
12620SOL    HW238039   5.201   2.798   2.723  0.4816  0.7797  0.9928
12621SOL     OW38040   6.512   4.529   1.383  0.2127  0.8536  0.0652
12621SOL    HW138041   6.420   4.492   1.397  0.2639  0.3204 -0.9105
12621SOL    HW238042   6.580   4.459   1.404  0.3110  0.3700 -1.7529
12622SOL     OW38043   2.686   4.836   2.535  0.2381 -0.2647 -0.3703
12622SOL    HW138044   2.630   4.912   2.567  2.1956  0.5414  1.4544
12622SOL    HW238045   2.716   4.782   2.613  0.2846 -1.9121 -1.4838
12623SOL     OW38046   1.274   3.303   6.041  0.1381 -0.0880 -0.3231
12623SOL    HW138047   1.307   3.209   6.043  0.7916  0.0848 -1.8788
12623SOL    HW238048   1.185   3.306   5.996 -0.7585 -0.1712  1.3543
12624SOL     OW38049   4.153   4.533   3.757  0.2380 -0.0385  0.0855
12624SOL    HW138050   4.067   4.505   3.798  0.4281 -1.6643 -0.5758
12624SOL    HW238051   4.205   4.453   3.728  1.0687  0.9738 -1.3846
12625SOL     OW38052   8.679   0.648   0.709 -0.3204  0.0598 -0.0327
12625SOL    HW138053   8.584   0.680   0.699 -0.0018  1.0922  0.1404
12625SOL    HW238054   8.715   0.679   0.797  0.1261 -0.4684 -0.0308
12626SOL     OW38055   0.229   0.100   8.521  0.1652  0.3478 -0.2351
12626SOL    HW138056   0.180   0.028   8.570  1.0843 -0.1344  0.0046
12626SOL    HW238057   0.225   0.185   8.573  0.6079 -0.0025  0.3852
12627SOL     OW38058   4.940   0.952   2.207  0.1770  0.0681 -0.1894
12627SOL    HW138059   4.984   1.005   2.135 -0.0604  1.4351  0.6280
12627SOL    HW238060   4.882   1.012   2.262 -0.8939 -1.2502  0.1714
12628SOL     OW38061   6.850   2.178   6.347 -0.2479 -0.5428 -0.2925
12628SOL    HW138062   6.862   2.277   6.349 -0.6163 -0.4636 -1.3351
12628SOL    HW238063   6.795   2.150   6.425 -1.1643  0.2373 -0.6270
12629SOL     OW38064   3.802   7.176   2.425 -0.0728  0.0629  0.3268
12629SOL    HW138065   3.828   7.131   2.339 -1.8797  1.4780 -1.0462
12629SOL    HW238066   3.706   7.205   2.419 -0.6244 -0.8008  3.3080
12630SOL     OW38067   7.209   4.514   8.611 -0.5562 -0.2188 -0.4921
12630SOL    HW138068   7.253   4.445   8.670  0.2841  0.8158  0.1167
12630SOL    HW238069   7.208   4.481   8.517 -0.6816 -1.3076 -0.1306
12631SOL     OW38070   7.496   3.936   1.384 -0.0027 -0.2502  0.0175
12631SOL    HW138071   7.547   4.019   1.406  1.2974 -0.6106 -1.4110
12631SOL    HW238072   7.555   3.875   1.330 -0.9311 -2.0992  1.0218
12632SOL     OW38073   0.194   7.693   7.422  0.2691 -0.2622 -0.4232
12632SOL    HW138074   0.213   7.692   7.520  1.5015  2.3162 -0.5795
12632SOL    HW238075   0.171   7.600   7.392 -0.6634 -1.0308  2.3642
12633SOL     OW38076   7.874   1.040   0.677 -0.0975 -0.1694 -0.1684
12633SOL    HW138077   7.843   0.946   0.683 -1.3563 -0.0125 -2.8296
12633SOL    HW238078   7.974   1.042   0.677 -0.0078 -1.7397 -2.0547
12634SOL     OW38079   4.882   6.036   0.916 -0.8396 -0.1593  0.3451
12634SOL    HW138080   4.846   6.103   0.850  0.7007 -0.2902 -0.6790
12634SOL    HW238081   4.919   5.957   0.866  2.7584  0.8740  1.1141
12635SOL     OW38082   3.265   0.865   1.598  0.1301 -0.3386  0.5691
12635SOL    HW138083   3.227   0.805   1.528  0.6745 -0.0418  0.0125
12635SOL    HW238084   3.224   0.956   1.590  1.1991  0.0895 -0.2753
12636SOL     OW38085   1.973   4.544   5.451  0.2084 -0.3876  0.2737
12636SOL    HW138086   2.008   4.638   5.456 -1.1749  0.1997 -0.3420
12636SOL    HW238087   1.995   4.505   5.362 -1.1742  0.2318 -0.3880
12637SOL     OW38088   0.556   5.665   6.863 -0.1271 -0.3338  0.3842
12637SOL    HW138089   0.586   5.728   6.934  0.1740 -1.2568  1.0967
12637SOL    HW238090   0.503   5.591   6.905  1.1239 -1.5807 -0.1504
12638SOL     OW38091   4.024   1.353   8.501  0.2464  0.0506  0.0143
12638SOL    HW138092   4.040   1.262   8.539  1.0678 -0.3182 -1.1579
12638SOL    HW238093   4.075   1.363   8.416  1.6966  2.2654  1.0389
12639SOL     OW38094   4.360   2.190   7.432  0.4112 -0.0891  0.4813
12639SOL    HW138095   4.329   2.206   7.526  1.5522  1.8540  0.5835
12639SOL    HW238096   4.281   2.174   7.373 -0.5108  0.9041  1.3980
12640SOL     OW38097   2.336   4.846   1.108  0.3017 -0.4733 -0.8950
12640SOL    HW138098   2.315   4.772   1.044  1.3182 -0.9300 -0.7202
12640SOL    HW238099   2.399   4.812   1.178  0.6743  0.5276 -0.7375
12641SOL     OW38100   0.271   2.556   2.150 -0.1624  0.3630 -0.2705
12641SOL    HW138101   0.189   2.520   2.106 -0.1881  1.9113 -1.5839
12641SOL    HW238102   0.335   2.587   2.080  1.0148  0.3331  0.7644
12642SOL     OW38103   1.758   6.500   3.183 -0.2598 -0.7239  0.3098
12642SOL    HW138104   1.831   6.546   3.132  1.3301 -2.2074  1.1497
12642SOL    HW238105   1.752   6.405   3.153 -0.3921 -1.1856  1.7525
12643SOL     OW38106   6.642   3.166   6.266  0.4783  0.0775 -0.4804
12643SOL    HW138107   6.616   3.161   6.169 -2.1469 -0.1214  0.1536
12643SOL    HW238108   6.733   3.127   6.277  0.6129 -0.4554 -2.7869
12644SOL     OW38109   1.834   3.386   2.626 -0.2239 -0.7272  0.6165
12644SOL    HW138110   1.889   3.303   2.623  0.4523 -0.3300  1.5897
12644SOL    HW238111   1.861   3.442   2.704 -1.2288  0.0287  0.4534
12645SOL     OW38112   3.231   3.631   5.404 -0.3704 -0.0179 -0.3755
12645SOL    HW138113   3.258   3.591   5.492 -1.8184 -2.1506 -0.8146
12645SOL    HW238114   3.262   3.726   5.400 -0.4856  0.2547  2.5460
12646SOL     OW38115   3.037   7.055   0.721 -0.2745 -0.8155 -0.0417
12646SOL    HW138116   2.978   6.993   0.671 -2.9976  1.5056  0.0682
12646SOL    HW238117   3.073   7.009   0.803 -0.5305 -2.8064 -1.0030
12647SOL     OW38118   5.083   8.423   1.257 -0.1053  0.0950 -0.5107
12647SOL    HW138119   5.122   8.352   1.198  1.8559  1.2128 -0.6388
12647SOL    HW238120   5.004   8.463   1.212 -0.8147 -1.4947 -0.7510
12648SOL     OW38121   5.938   4.629   1.066  0.0686  0.1361  0.4828
12648SOL    HW138122   5.941   4.530   1.077 -1.2914  0.0665  0.3804
12648SOL    HW238123   6.018   4.659   1.014  0.2321 -0.9650  0.0694
12649SOL     OW38124   4.633   1.757   4.434 -0.2226 -0.0598 -0.0829
12649SOL    HW138125   4.708   1.757   4.368 -0.6216 -0.0155 -0.5415
12649SOL    HW238126   4.596   1.850   4.443  1.2217  0.4067  1.8287
12650SOL     OW38127   6.156   5.944   0.999 -0.4896 -0.1847 -0.6401
12650SOL    HW138128   6.099   6.018   0.963 -0.5212 -0.3620 -0.9601
12650SOL    HW238129   6.101   5.861   1.011 -0.6183  0.0413  0.4081
12651SOL     OW38130   7.294   6.856   7.014  0.1927 -0.6131  0.5540
12651SOL    HW138131   7.341   6.797   7.080 -0.2034  0.5302  1.9011
12651SOL    HW238132   7.312   6.951   7.036  0.5965 -0.1814 -1.4276
12652SOL     OW38133   2.204   1.161   0.909 -0.4591 -0.4572 -0.1228
12652SOL    HW138134   2.296   1.154   0.870  0.3101 -1.6359  1.7575
12652SOL    HW238135   2.166   1.251   0.888  0.9662 -0.0757 -1.2450
12653SOL     OW38136   6.677   1.263   0.519 -0.1652 -0.5797 -0.6218
12653SOL    HW138137   6.757   1.310   0.554 -0.2071 -0.4481 -0.7042
12653SOL    HW238138   6.654   1.298   0.429 -1.6347  0.9556  0.3019
12654SOL     OW38139   2.821   1.072   3.826  0.6500  0.3777 -0.5196
12654SOL    HW138140   2.815   1.154   3.884  0.6214  1.6324 -2.2119
12654SOL    HW238141   2.916   1.041   3.824  0.4022 -0.6591  1.4200
12655SOL     OW38142   7.656   5.386   5.582 -0.4890  0.2010 -0.0467
12655SOL    HW138143   7.613   5.476   5.575  0.1843  0.6554  1.4127
12655SOL    HW238144   7.746   5.388   5.539 -0.3389  0.3106  0.2750
12656SOL     OW38145   0.759   4.219   4.249 -0.6777  0.6969 -0.7253
12656SOL    HW138146   0.743   4.318   4.244 -0.6901  0.7178 -0.2708
12656SOL    HW238147   0.740   4.178   4.160  2.2625  1.5521 -1.8621
12657SOL     OW38148   7.415   5.155   3.503  0.8506  0.1931 -0.0218
12657SOL    HW138149   7.335   5.215   3.508 -0.0361 -0.8042 -1.4395
12657SOL    HW238150   7.411   5.088   3.576 -0.8383 -1.2251 -1.3183
12658SOL     OW38151   2.434   4.687   1.778  0.0232 -0.0151 -0.0920
12658SOL    HW138152   2.392   4.688   1.869  1.1112  1.0266  0.4262
12658SOL    HW238153   2.363   4.687   1.708 -0.9261 -3.2469  0.6826
12659SOL     OW38154   2.356   6.608   0.907 -0.3218 -0.1765 -0.2169
12659SOL    HW138155   2.342   6.534   0.973 -0.4472  0.0488  0.0098
12659SOL    HW238156   2.392   6.570   0.822 -0.4450 -0.5076 -0.1233
12660SOL     OW38157   5.329   4.751   7.654 -0.4990 -0.2495  0.4783
12660SOL    HW138158   5.365   4.817   7.720 -0.4235 -0.4296  0.6167
12660SOL    HW238159   5.233   4.731   7.675 -0.0717 -1.3906  1.3959
12661SOL     OW38160   2.123   3.435   2.764  0.1629  0.4925  0.5012
12661SOL    HW138161   2.184   3.367   2.804 -0.2904 -0.9296 -1.1063
12661SOL    HW238162   2.177   3.512   2.727  1.0298 -0.7007 -0.8338
12662SOL     OW38163   7.942   5.147   0.261  0.2845  0.4038  0.1259
12662SOL    HW138164   7.938   5.062   0.313 -0.5737 -0.0807 -0.7036
12662SOL    HW238165   7.924   5.224   0.322 -0.0359 -0.0977  0.6777
12663SOL     OW38166   7.814   4.261   8.655 -0.3896 -0.1744 -0.2853
12663SOL    HW138167   7.807   4.360   8.648  1.2641  0.0247  0.2746
12663SOL    HW238168   7.834   4.236   8.749  0.0825 -0.9644 -0.5858
12664SOL     OW38169   8.446   2.376   1.694  0.1838 -0.3019  0.0398
12664SOL    HW138170   8.456   2.442   1.769  0.8072 -1.3487  0.9073
12664SOL    HW238171   8.359   2.328   1.704  0.8655 -1.4100  0.9273
12665SOL     OW38172   8.648   0.652   3.096 -0.6560 -0.1959  0.3496
12665SOL    HW138173   8.622   0.558   3.117 -0.8096 -0.1656  0.2914
12665SOL    HW238174   8.604   0.681   3.011  2.8685 -1.6402 -2.2610
12666SOL     OW38175   1.544   4.647   3.574  0.1416 -0.0126 -0.2136
12666SOL    HW138176   1.456   4.622   3.533  0.2549 -0.6796 -0.0640
12666SOL    HW238177   1.600   4.565   3.585  1.6961  0.6663 -2.3860
12667SOL     OW38178   4.934   3.239   7.927 -0.3486 -0.2259  0.4579
12667SOL    HW138179   5.032   3.233   7.909 -0.1697  1.3453  0.8065
12667SOL    HW238180   4.918   3.284   8.015 -1.3752 -1.1501  0.7643
12668SOL     OW38181   0.452   8.839   8.175  0.0024  0.2589 -0.5218
12668SOL    HW138182   0.451   8.847   8.075 -0.8754  0.6475 -0.4962
12668SOL    HW238183   0.380   8.897   8.213 -0.0461 -0.3322  0.3057
12669SOL     OW38184   8.833   4.709   8.555 -0.3325 -0.2850 -0.0203
12669SOL    HW138185   8.894   4.696   8.477  0.2037  0.3700  0.2811
12669SOL    HW238186   8.742   4.675   8.532 -0.1619 -0.1712 -0.9076
12670SOL     OW38187   4.210   8.356   5.655 -0.1776  0.7911  0.3687
12670SOL    HW138188   4.292   8.396   5.614  0.0982 -0.4090 -0.3170
12670SOL    HW238189   4.234   8.314   5.742 -0.0000  0.2517  0.0674
12671SOL     OW38190   0.007   1.304   1.406 -0.7635 -0.2257 -0.6871
12671SOL    HW138191  -0.064   1.318   1.475  0.7057  1.8031  0.5243
12671SOL    HW238192  -0.021   1.347   1.320 -1.5098 -0.5299 -0.5999
12672SOL     OW38193   7.326   7.261   0.138 -0.1370 -0.0114 -0.2867
12672SOL    HW138194   7.235   7.275   0.176  0.2393 -0.6224  0.8549
12672SOL    HW238195   7.395   7.303   0.198  0.2128  2.9430 -2.4872
12673SOL     OW38196   6.344   4.533   5.419  0.3139 -0.3292  0.2609
12673SOL    HW138197   6.335   4.457   5.484 -1.8687 -2.0318 -1.8746
12673SOL    HW238198   6.315   4.503   5.329  2.1262  2.3049 -1.3270
12674SOL     OW38199   8.226   4.407   7.273  0.1196 -0.1989 -0.4165
12674SOL    HW138200   8.131   4.381   7.256  0.0981 -1.4956  1.3860
12674SOL    HW238201   8.231   4.503   7.302 -0.5951 -0.0398 -0.8155
12675SOL     OW38202   8.515   3.936   8.656  0.3690 -0.3230 -0.1341
12675SOL    HW138203   8.550   3.947   8.749  0.8529 -0.8787 -0.2489
12675SOL    HW238204   8.415   3.943   8.657  0.4295  0.6123  0.2853
12676SOL     OW38205   8.598   3.961   7.957  0.1263 -0.1175 -0.2800
12676SOL    HW138206   8.619   4.015   7.875 -1.8760  1.1079 -0.0383
12676SOL    HW238207   8.546   3.879   7.931  1.5135 -0.9952 -0.4323
12677SOL     OW38208   1.258   1.613   0.955  0.7930  0.4958  0.9875
12677SOL    HW138209   1.251   1.591   1.053 -0.1513  1.5527  1.1816
12677SOL    HW238210   1.339   1.569   0.917  1.0093 -0.1862  2.1753
12678SOL     OW38211   4.800   2.674   6.944  0.7263 -0.3071  0.6327
12678SOL    HW138212   4.780   2.645   7.037  0.5338 -1.5209  0.2245
12678SOL    HW238213   4.731   2.742   6.915  1.3428  0.7946  1.6827
12679SOL     OW38214   4.695   5.600   4.617 -0.0424 -0.4931 -0.0355
12679SOL    HW138215   4.603   5.630   4.593 -0.9028 -3.1929 -0.3610
12679SOL    HW238216   4.715   5.512   4.573  2.3371 -0.4611  0.8063
12680SOL     OW38217   0.775   4.913   1.799 -0.1140  0.1256  0.3706
12680SOL    HW138218   0.740   4.890   1.890  0.1966  0.0258  0.4669
12680SOL    HW238219   0.816   5.004   1.801 -0.5526  0.3290  0.2066
12681SOL     OW38220   2.960   0.254   7.964 -0.5880 -0.7359  0.1862
12681SOL    HW138221   3.004   0.306   7.891 -1.4851 -1.0800 -0.6072
12681SOL    HW238222   2.863   0.276   7.967 -1.0667 -2.6102 -0.4100
12682SOL     OW38223   5.916   1.509   2.159 -0.5136 -0.1880  0.5617
12682SOL    HW138224   5.870   1.595   2.137 -0.8504 -0.6498 -0.5948
12682SOL    HW238225   5.851   1.446   2.202  0.0300  0.5456  2.5710
12683SOL     OW38226   6.741   4.126   1.075 -0.4869 -0.0294 -0.2609
12683SOL    HW138227   6.791   4.054   1.026  0.0785  0.3929 -0.3018
12683SOL    HW238228   6.660   4.152   1.021  1.0144  1.6180 -1.8530
12684SOL     OW38229   1.113   8.107   6.882  0.0424 -0.2888  0.1627
12684SOL    HW138230   1.208   8.096   6.852  0.2112 -0.6945  0.8245
12684SOL    HW238231   1.060   8.028   6.854 -0.0887 -0.0973 -0.1394
12685SOL     OW38232   4.657   2.233   8.568 -0.0670 -0.1268  0.2552
12685SOL    HW138233   4.594   2.274   8.502  1.4643  2.4504  0.2911
12685SOL    HW238234   4.622   2.143   8.595 -3.3079  0.8131 -0.3074
12686SOL     OW38235   2.113   2.390   6.081  0.0747 -0.3315  0.1205
12686SOL    HW138236   2.168   2.471   6.059  0.8725 -0.3549  1.9000
12686SOL    HW238237   2.172   2.316   6.110 -0.8508 -0.2589  2.4137
12687SOL     OW38238   7.495   7.153   2.311  0.0890 -0.0123  0.2374
12687SOL    HW138239   7.507   7.090   2.234  0.5884 -1.7512  1.6640
12687SOL    HW238240   7.419   7.216   2.291  0.4860 -0.1206 -1.8243
12688SOL     OW38241   1.817   6.468   6.618 -0.0709  0.7530  0.3323
12688SOL    HW138242   1.757   6.542   6.648  0.6296  1.6699 -0.4716
12688SOL    HW238243   1.774   6.420   6.541 -0.0637  0.9888  0.1799
12689SOL     OW38244   0.366   7.379   0.418 -0.1852  0.2320 -0.1950
12689SOL    HW138245   0.373   7.453   0.351  0.0433 -0.2311 -0.6930
12689SOL    HW238246   0.456   7.338   0.431  0.1735  1.4951  1.7893
12690SOL     OW38247   6.890   5.077   3.777  0.3257  0.0508  0.4263
12690SOL    HW138248   6.970   5.103   3.830 -0.2046  0.3788  1.0834
12690SOL    HW238249   6.912   5.077   3.680  1.2276 -0.2690  0.6243
12691SOL     OW38250   7.726   5.147   4.980  0.3360 -0.1937 -0.1853
12691SOL    HW138251   7.745   5.086   5.057 -0.8339 -1.5193 -0.9045
12691SOL    HW238252   7.640   5.196   4.997  1.2059  1.2035  0.3322
12692SOL     OW38253   0.800   5.515   1.246  0.0084 -0.4986  0.4396
12692SOL    HW138254   0.862   5.456   1.193  0.6939 -0.0015  0.6804
12692SOL    HW238255   0.851   5.589   1.287 -0.9651  0.7593 -0.5356
12693SOL     OW38256   5.392   2.994   7.271  0.3492 -0.5507 -0.0314
12693SOL    HW138257   5.396   3.090   7.299  2.4049 -0.0987 -1.6095
12693SOL    HW238258   5.399   2.936   7.352 -0.5852  0.6025  0.9159
12694SOL     OW38259   3.584   8.142   6.474  0.3574 -0.3164  0.4563
12694SOL    HW138260   3.602   8.073   6.544  3.6050 -0.4637 -0.3528
12694SOL    HW238261   3.646   8.219   6.486  0.3263  0.1001 -1.6304
12695SOL     OW38262   7.125   6.779   6.783 -0.2361 -0.3059  0.2079
12695SOL    HW138263   7.189   6.785   6.707 -0.7536 -0.5742 -0.2546
12695SOL    HW238264   7.169   6.812   6.866 -0.7107  3.4519 -0.8188
12696SOL     OW38265   4.514   0.473   4.190 -0.1315  0.2979  0.2898
12696SOL    HW138266   4.457   0.552   4.212  1.0617  1.0337  0.8838
12696SOL    HW238267   4.466   0.389   4.215 -1.0249  0.8875  0.5959
12697SOL     OW38268   5.129   4.711   0.727  0.0883 -0.0623  0.1237
12697SOL    HW138269   5.075   4.703   0.643 -1.7562 -1.8580  1.3990
12697SOL    HW238270   5.207   4.649   0.722 -1.4165 -2.0820  0.6887
12698SOL     OW38271   0.665   6.132   3.854 -0.2502 -0.2609 -0.1890
12698SOL    HW138272   0.603   6.210   3.847  0.0904  0.0256 -0.0580
12698SOL    HW238273   0.622   6.060   3.909 -0.2904  0.1155  0.2781
12699SOL     OW38274   8.030   0.387   7.119  0.8252 -0.0544  0.0819
12699SOL    HW138275   8.019   0.318   7.047 -1.0265 -1.2399  1.4006
12699SOL    HW238276   7.947   0.441   7.125  0.8236 -0.1910  1.5229
12700SOL     OW38277   2.773   8.817   2.585 -0.0267 -0.4548 -1.0328
12700SOL    HW138278   2.694   8.873   2.611  0.3939 -0.0023 -0.7206
12700SOL    HW238279   2.854   8.849   2.633  0.7036  0.1475 -2.6135
12701SOL     OW38280   1.893   7.284   2.054 -0.1075 -0.6621 -0.3514
12701SOL    HW138281   1.918   7.269   2.150  0.8220 -2.0305 -0.7766
12701SOL    HW238282   1.797   7.314   2.049  0.0514  0.1647  1.0282
12702SOL     OW38283   2.404   0.992   2.136 -0.2526 -0.1771 -0.1798
12702SOL    HW138284   2.474   1.063   2.141 -0.3716  0.1546 -2.3878
12702SOL    HW238285   2.424   0.921   2.204  1.8509  0.2301 -0.3087
12703SOL     OW38286   1.972   6.603   0.124  0.0354  0.2729 -0.4048
12703SOL    HW138287   1.963   6.512   0.083 -0.7639  0.1692 -0.0174
12703SOL    HW238288   1.924   6.670   0.067  1.4467  0.6458 -1.2278
12704SOL     OW38289   1.774   0.595   8.159 -0.5157 -0.0557  0.1573
12704SOL    HW138290   1.842   0.653   8.203 -0.3083  0.6520 -1.0681
12704SOL    HW238291   1.682   0.625   8.187 -0.4116 -1.9333  3.0014
12705SOL     OW38292   5.904   1.698   6.064  0.1939  0.0526 -0.1582
12705SOL    HW138293   5.972   1.766   6.038 -1.1710  1.4192 -0.2785
12705SOL    HW238294   5.854   1.729   6.145 -1.7519  0.1680 -1.3328
12706SOL     OW38295   3.893   7.636   6.405 -0.5596 -0.6955 -0.8450
12706SOL    HW138296   3.829   7.681   6.343 -2.1297 -1.5193  0.1249
12706SOL    HW238297   3.846   7.564   6.456  0.8398 -0.4709  0.8517
12707SOL     OW38298   3.166   3.638   6.172 -0.3855 -0.2915 -0.6614
12707SOL    HW138299   3.160   3.540   6.195  0.8271 -0.4078 -0.8043
12707SOL    HW238300   3.138   3.692   6.251 -0.9592 -0.7489 -0.5417
12708SOL     OW38301   1.555   3.362   2.125  0.2193 -0.4968 -0.4504
12708SOL    HW138302   1.622   3.288   2.118  1.2732  0.3105  0.7337
12708SOL    HW238303   1.598   3.449   2.100 -0.7456 -0.1261 -0.8864
12709SOL     OW38304   8.090   3.193   7.419 -0.1430  0.3690 -0.1170
12709SOL    HW138305   8.041   3.226   7.498 -1.6854  0.5376 -1.1092
12709SOL    HW238306   8.133   3.270   7.371  1.2825  0.2095  0.8160
12710SOL     OW38307   2.121   1.116   5.744  0.4190  0.3473 -0.6849
12710SOL    HW138308   2.127   1.101   5.842 -1.3468 -1.0793 -0.7342
12710SOL    HW238309   2.212   1.132   5.706  0.9567  2.8886  1.4088
12711SOL     OW38310   0.235   3.692   4.106 -1.2046 -0.0733  0.0960
12711SOL    HW138311   0.290   3.687   4.022 -3.1015  0.6093 -1.2464
12711SOL    HW238312   0.273   3.763   4.166  0.8660 -1.3536  0.4062
12712SOL     OW38313   0.360   7.711   5.381  0.2467  0.3454  0.0743
12712SOL    HW138314   0.443   7.668   5.415 -0.3069  1.0194  2.4626
12712SOL    HW238315   0.347   7.686   5.285  3.7881  1.1749 -0.7641
12713SOL     OW38316   0.732   4.994   5.019 -0.1579  0.2700 -0.0804
12713SOL    HW138317   0.808   4.937   4.989  0.7733  1.6985 -0.5712
12713SOL    HW238318   0.699   4.962   5.108 -0.1225 -1.3989 -0.6319
12714SOL     OW38319   1.037   5.117   6.693 -0.2742 -0.4856 -0.5961
12714SOL    HW138320   0.950   5.136   6.648 -1.0886  0.1764  1.1626
12714SOL    HW238321   1.086   5.202   6.710  0.4208 -0.7996 -0.9890
12715SOL     OW38322   4.947   2.063   3.990 -0.3903  0.3362  0.3858
12715SOL    HW138323   4.928   1.987   3.928 -0.8899 -0.7634  1.8389
12715SOL    HW238324   5.019   2.121   3.951 -2.2972  1.0663 -2.3279
12716SOL     OW38325   7.588   8.253   6.185 -0.1122  0.0953  0.2013
12716SOL    HW138326   7.599   8.170   6.240  1.0748 -0.1096 -0.3175
12716SOL    HW238327   7.677   8.299   6.176 -0.2827  0.1502 -1.4770
12717SOL     OW38328   5.068   1.652   2.874 -0.1898  0.1467  0.7222
12717SOL    HW138329   5.051   1.670   2.777  3.4385  0.4532  0.0172
12717SOL    HW238330   5.033   1.561   2.897 -1.1509  0.0782 -0.8252
12718SOL     OW38331   0.644   8.816   0.048  0.4997  0.1279 -0.0846
12718SOL    HW138332   0.742   8.813   0.028  0.6156  2.7404 -0.1945
12718SOL    HW238333   0.593   8.820  -0.037  0.1899 -1.8000 -0.0496
12719SOL     OW38334   6.418   6.597   8.005 -0.0672  0.0078  0.1475
12719SOL    HW138335   6.416   6.500   7.980  0.5068 -0.0227  0.2150
12719SOL    HW238336   6.329   6.639   7.983 -0.5331 -0.6712  0.7082
12720SOL     OW38337   2.306   2.922   3.641  0.6298 -0.3215  0.3781
12720SOL    HW138338   2.334   2.961   3.728  0.5207 -0.2492  0.3809
12720SOL    HW238339   2.209   2.939   3.626  0.8535  0.5151 -0.2016
12721SOL     OW38340   7.899   4.093   6.676 -0.0444 -0.6311  0.3430
12721SOL    HW138341   7.900   4.182   6.630  1.0631  0.0780  1.6577
12721SOL    HW238342   7.849   4.100   6.763 -0.3524 -1.4252  0.2427
12722SOL     OW38343   5.110   3.173   6.392  0.4425  0.2153 -0.5789
12722SOL    HW138344   5.135   3.214   6.304 -0.7027  0.3670 -0.8466
12722SOL    HW238345   5.033   3.223   6.432  2.3777  1.6146  1.6485
12723SOL     OW38346   1.872   1.984   2.168  0.0396  0.4695 -0.3623
12723SOL    HW138347   1.866   1.901   2.113  1.6161  1.0522 -1.4713
12723SOL    HW238348   1.873   2.064   2.108 -1.5682  1.3441  0.6918
12724SOL     OW38349   2.212   1.246   1.200  0.4585 -0.7013 -0.5123
12724SOL    HW138350   2.227   1.186   1.122 -1.3603 -0.5762 -1.0117
12724SOL    HW238351   2.267   1.329   1.190  0.6971 -0.9548 -1.3422
12725SOL     OW38352   1.014   1.096   5.932 -0.2839 -0.1712 -0.5851
12725SOL    HW138353   1.051   1.181   5.971  1.4313 -0.7315 -0.9118
12725SOL    HW238354   1.022   1.022   5.999 -0.5246 -0.3794 -0.7846
12726SOL     OW38355   2.544   2.493   0.679 -0.0162  0.5296  0.3291
12726SOL    HW138356   2.572   2.511   0.585  0.5400  0.9979  0.5826
12726SOL    HW238357   2.493   2.571   0.714  0.4628  0.6856  0.6818
12727SOL     OW38358   5.553   0.897   4.700 -0.6318 -0.2394 -0.0190
12727SOL    HW138359   5.461   0.878   4.666 -0.4565 -2.2163  0.5140
12727SOL    HW238360   5.614   0.821   4.678  1.4722  1.8822 -2.2052
12728SOL     OW38361   4.322   1.040   6.198 -0.2389  0.3740  0.2239
12728SOL    HW138362   4.390   0.972   6.171  0.3374  0.6290  0.9786
12728SOL    HW238363   4.362   1.101   6.267 -1.2553  0.4929  0.7294
12729SOL     OW38364   5.278   4.322   3.769 -0.2771  0.3786  0.0672
12729SOL    HW138365   5.243   4.261   3.840  0.4369  0.0903  0.1783
12729SOL    HW238366   5.339   4.389   3.810  1.9384 -1.1697 -0.5333
12730SOL     OW38367   7.204   2.624   4.968 -0.1630 -0.2468  0.1009
12730SOL    HW138368   7.249   2.587   5.050 -0.5250 -2.1171 -0.4804
12730SOL    HW238369   7.125   2.567   4.946  0.0779  0.0595 -1.6829
12731SOL     OW38370   8.639   8.402   3.151 -0.2647  0.4782  1.0849
12731SOL    HW138371   8.601   8.352   3.073 -0.7330  1.6065  0.5560
12731SOL    HW238372   8.727   8.363   3.176  0.0398  0.2728 -0.2232
12732SOL     OW38373   7.303   0.481   6.100  0.0329 -0.3572  0.2299
12732SOL    HW138374   7.239   0.497   6.025  0.4037  0.3514  0.0550
12732SOL    HW238375   7.376   0.421   6.069 -1.7361 -3.1914  1.0862
12733SOL     OW38376   7.624   6.874   5.039 -0.1175  0.2461  0.1930
12733SOL    HW138377   7.612   6.787   5.086 -3.1829  1.1732  1.3134
12733SOL    HW238378   7.616   6.950   5.104 -0.8198  1.4572 -1.2380
12734SOL     OW38379   4.104   0.129   1.524  0.1219  0.2254 -0.3886
12734SOL    HW138380   4.014   0.089   1.506  0.5082 -0.5866 -0.5683
12734SOL    HW238381   4.096   0.228   1.526 -0.7420  0.1722 -0.6171
12735SOL     OW38382   6.303   7.407   7.192  0.1633 -0.3107 -0.1416
12735SOL    HW138383   6.282   7.311   7.208  1.4099 -0.3604  1.5387
12735SOL    HW238384   6.360   7.416   7.110 -1.4642 -0.7663 -1.3605
12736SOL     OW38385   2.670   7.380   3.538 -0.3945  0.4125  0.1501
12736SOL    HW138386   2.595   7.315   3.544  0.5683 -0.6703  0.9817
12736SOL    HW238387   2.656   7.454   3.603 -0.1853 -0.4068  1.1472
12737SOL     OW38388   6.324   3.938   3.279  0.0690 -0.2869 -0.2558
12737SOL    HW138389   6.272   3.870   3.228 -0.0472 -0.6951  0.3940
12737SOL    HW238390   6.276   4.026   3.275  0.3982 -0.1347 -1.3928
12738SOL     OW38391   2.567   6.075   7.443  0.6914  0.0520  0.3126
12738SOL    HW138392   2.486   6.094   7.387 -0.0732 -1.2094  0.9437
12738SOL    HW238393   2.603   5.984   7.419  0.9489 -0.0779  1.1705
12739SOL     OW38394   5.924   6.624   0.887  0.6004 -0.3194  0.2337
12739SOL    HW138395   5.958   6.588   0.974 -0.0438 -0.0602  0.5965
12739SOL    HW238396   5.891   6.717   0.900  1.0803 -0.0481 -0.4294
12740SOL     OW38397   7.963   3.940   8.294  0.2542  0.2914  0.0297
12740SOL    HW138398   7.922   3.870   8.236  0.8974 -0.0217 -0.0524
12740SOL    HW238399   8.003   3.898   8.375  0.3542  0.6008  0.1416
12741SOL     OW38400   5.865   3.766   4.098  0.2770  0.1845 -0.5758
12741SOL    HW138401   5.917   3.805   4.022  0.9847  0.6980  0.1571
12741SOL    HW238402   5.893   3.672   4.112 -0.8175 -0.3650 -1.7907
12742SOL     OW38403   8.036   2.742   5.039 -0.1415 -0.1958  0.8251
12742SOL    HW138404   8.015   2.797   5.119  0.2111  0.5484  0.4145
12742SOL    HW238405   8.113   2.681   5.060 -0.3275 -0.3128  1.1774
12743SOL     OW38406   2.077   6.187   5.121 -0.4131  0.3719  0.9597
12743SOL    HW138407   2.150   6.127   5.153  0.9016  0.3903 -1.7510
12743SOL    HW238408   1.992   6.136   5.115  0.5301 -1.1068 -0.6459
12744SOL     OW38409   3.550   8.375   3.493 -0.1370 -0.3808 -0.2070
12744SOL    HW138410   3.634   8.357   3.544  0.6237 -1.4927 -1.7836
12744SOL    HW238411   3.477   8.315   3.527 -0.2137  0.2937  0.8809
12745SOL     OW38412   2.728   3.142   8.853 -0.1907  0.2921  0.4734
12745SOL    HW138413   2.777   3.141   8.941 -1.0237  2.0021  0.9951
12745SOL    HW238414   2.794   3.151   8.779  0.3743  1.8305  1.1207
12746SOL     OW38415   0.542   1.643   1.432  0.0762  0.2004  0.6697
12746SOL    HW138416   0.517   1.563   1.486 -1.4656 -0.5648 -1.0875
12746SOL    HW238417   0.486   1.721   1.461 -0.8278 -0.2367  0.1652
12747SOL     OW38418   2.075   5.886   1.617 -0.0395 -0.4486  0.7038
12747SOL    HW138419   2.167   5.871   1.579 -0.1165  0.4310  0.1506
12747SOL    HW238420   2.012   5.911   1.544 -0.3095  0.7505  1.3219
12748SOL     OW38421   6.195   6.313   1.882  0.1129  0.5199  0.8421
12748SOL    HW138422   6.231   6.337   1.792 -0.7398  1.0691  0.6361
12748SOL    HW238423   6.099   6.288   1.874  0.8877 -2.9754  1.0623
12749SOL     OW38424   8.089   8.650   0.502 -0.4919 -0.0787 -0.3025
12749SOL    HW138425   8.041   8.564   0.486  0.1707 -0.6561  0.7000
12749SOL    HW238426   8.179   8.646   0.459 -0.1125 -0.2522  0.4817
12750SOL     OW38427   2.321   3.095   2.749  0.1903  0.4095 -0.1400
12750SOL    HW138428   2.281   3.073   2.838  1.5477 -2.4976 -0.1273
12750SOL    HW238429   2.249   3.120   2.685 -1.0560  0.3388  1.1961
12751SOL     OW38430   0.496   1.294   3.754 -0.2907  0.2003 -0.2494
12751SOL    HW138431   0.542   1.209   3.729  0.0465  0.0686  0.7575
12751SOL    HW238432   0.522   1.367   3.690 -0.1708 -0.3257 -0.8061
12752SOL     OW38433   2.215   0.212   8.469 -1.0109  0.0659 -0.2240
12752SOL    HW138434   2.253   0.216   8.561  0.7311  0.1506 -0.9141
12752SOL    HW238435   2.137   0.149   8.468 -0.5937 -0.5079  1.1528
12753SOL     OW38436   3.192   3.766   6.743 -0.1927 -0.3441  0.0407
12753SOL    HW138437   3.189   3.795   6.839 -0.9303 -1.1126  0.2656
12753SOL    HW238438   3.183   3.667   6.738 -0.2400 -0.3038 -0.8290
12754SOL     OW38439   2.322   3.795   3.686  0.2018 -0.2535 -0.3452
12754SOL    HW138440   2.378   3.726   3.732 -1.2542 -1.0893  0.2687
12754SOL    HW238441   2.225   3.771   3.697 -0.3069  1.4392 -0.8709
12755SOL     OW38442   8.374   6.574   4.138 -0.3893 -0.4653 -0.4625
12755SOL    HW138443   8.442   6.638   4.103 -0.2380 -0.7637 -0.7166
12755SOL    HW238444   8.418   6.486   4.157 -0.3437 -0.1417  1.0274
12756SOL     OW38445   0.133   7.070   7.314 -0.3529 -0.2998 -0.0202
12756SOL    HW138446   0.144   7.000   7.243  0.0751  0.0329 -0.2867
12756SOL    HW238447   0.043   7.111   7.306 -0.0989  0.1268 -0.7331
12757SOL     OW38448   0.968   1.356   4.652  0.1831 -0.6623 -0.3164
12757SOL    HW138449   0.923   1.270   4.629 -0.5803 -0.7287  1.2938
12757SOL    HW238450   0.901   1.420   4.689  1.2068 -0.3726  1.1151
12758SOL     OW38451   2.416   2.768   2.021  0.3777  0.7312 -0.2551
12758SOL    HW138452   2.410   2.722   1.933 -0.2915  1.3484 -0.5459
12758SOL    HW238453   2.437   2.701   2.093  1.4777  0.3158 -0.9542
12759SOL     OW38454   4.815   7.549   6.080 -0.1723 -0.6780 -0.0296
12759SOL    HW138455   4.848   7.628   6.132  1.9641 -3.6783  3.8008
12759SOL    HW238456   4.887   7.519   6.017  0.1171 -0.9909  0.4353
12760SOL     OW38457   8.172   3.695   1.609  0.0185  0.2178  0.2882
12760SOL    HW138458   8.258   3.703   1.660 -0.2197  0.4761  0.6604
12760SOL    HW238459   8.096   3.688   1.674 -0.1967 -0.5445 -0.0336
12761SOL     OW38460   8.842   4.718   4.897 -0.7155  0.4455  0.4856
12761SOL    HW138461   8.824   4.810   4.932 -0.7381  0.3799  0.6455
12761SOL    HW238462   8.762   4.660   4.914 -0.2419  0.0697  1.4638
12762SOL     OW38463   5.081   7.522   7.166  0.1546 -0.3064  0.0337
12762SOL    HW138464   5.053   7.428   7.146 -1.1485 -0.4016  2.0325
12762SOL    HW238465   5.025   7.559   7.240  1.8238  1.4482  0.5141
12763SOL     OW38466   3.495   3.181   3.746 -0.1567  0.1601 -0.8106
12763SOL    HW138467   3.401   3.171   3.778 -0.5952 -0.1455 -2.1315
12763SOL    HW238468   3.544   3.095   3.759  0.7483  1.0277  2.2312
12764SOL     OW38469   3.976   7.430   2.911 -0.3985 -0.4518 -0.0066
12764SOL    HW138470   3.932   7.503   2.858  0.6132  0.0750 -0.1454
12764SOL    HW238471   3.947   7.341   2.875 -1.2920 -0.1238 -0.1315
12765SOL     OW38472   7.358   5.876   3.533 -0.0834  0.5381 -0.0512
12765SOL    HW138473   7.364   5.961   3.480 -0.6761 -0.1658 -1.2981
12765SOL    HW238474   7.266   5.866   3.571  0.7812  1.8693  2.6393
12766SOL     OW38475   6.444   4.923   5.323  0.4290  0.1104  0.0936
12766SOL    HW138476   6.499   4.913   5.406  2.9645  2.4765 -1.1569
12766SOL    HW238477   6.463   4.846   5.262 -1.5532 -1.7185  1.6326
12767SOL     OW38478   1.645   4.923   7.750  0.0330 -0.0964  0.1321
12767SOL    HW138479   1.641   4.931   7.650  1.8172  1.5234  0.1421
12767SOL    HW238480   1.605   5.005   7.792 -2.0484 -1.3895  0.8371
12768SOL     OW38481   6.202   1.599   8.158  0.5229 -0.3266  0.3370
12768SOL    HW138482   6.214   1.532   8.085 -1.2611 -1.1016  0.7009
12768SOL    HW238483   6.198   1.552   8.246 -0.7537  0.2321  0.6043
12769SOL     OW38484   6.182   1.700   6.638  0.3289 -0.4416 -0.1946
12769SOL    HW138485   6.265   1.722   6.587  0.6859 -0.6052  0.2980
12769SOL    HW238486   6.154   1.607   6.617  0.3610 -0.4400 -0.2452
12770SOL     OW38487   7.238   0.095   4.024 -0.0996  0.2812  0.1271
12770SOL    HW138488   7.292   0.105   3.940 -1.3747 -0.1748 -0.7857
12770SOL    HW238489   7.195   0.183   4.047  1.0245  0.6513  0.8706
12771SOL     OW38490   5.678   1.128   1.948 -0.1644 -0.0081 -0.3934
12771SOL    HW138491   5.617   1.199   1.913 -0.4635  0.0864  0.3011
12771SOL    HW238492   5.702   1.066   1.874 -2.0716 -0.7543 -0.4575
12772SOL     OW38493   1.552   6.383   2.560 -0.2624 -0.2902  0.0812
12772SOL    HW138494   1.547   6.295   2.512 -0.5077 -0.0118 -0.4166
12772SOL    HW238495   1.480   6.387   2.630 -0.9812 -0.0505 -0.6527
12773SOL     OW38496   3.760   1.381   8.335  0.2727  0.4959  0.4005
12773SOL    HW138497   3.767   1.329   8.250 -1.3725 -1.3137  1.2705
12773SOL    HW238498   3.843   1.367   8.390  1.0641  1.1557 -0.5930
12774SOL     OW38499   1.988   2.991   5.931  0.6206 -0.3857  0.4034
12774SOL    HW138500   1.896   3.022   5.910  0.5527 -1.1451 -0.4592
12774SOL    HW238501   2.043   3.069   5.961  0.0544  0.2993 -0.2937
12775SOL     OW38502   2.322   4.692   2.034  0.3692  0.8638  0.3178
12775SOL    HW138503   2.391   4.760   2.055  0.8754  0.2059  0.8580
12775SOL    HW238504   2.239   4.737   2.001  0.3010  1.8169  1.7039
12776SOL     OW38505   7.446   8.008   8.069 -0.2183  1.2377  0.4259
12776SOL    HW138506   7.518   7.957   8.022 -0.8060  2.7364 -2.3194
12776SOL    HW238507   7.486   8.082   8.122  0.3288  2.1965 -1.2598
12777SOL     OW38508   1.646   2.114   7.088 -0.0744 -0.3660  0.6870
12777SOL    HW138509   1.665   2.026   7.132  1.0919  0.5251  2.0313
12777SOL    HW238510   1.556   2.146   7.116 -0.2887 -0.8679  0.5969
12778SOL     OW38511   4.626   2.757   3.190  0.5912 -0.0785 -0.1330
12778SOL    HW138512   4.564   2.685   3.219  0.4623  0.2315  0.3648
12778SOL    HW238513   4.692   2.720   3.123  1.4574 -1.0188  1.1947
12779SOL     OW38514   7.172   3.716   4.649  0.2046 -0.4535  0.2427
12779SOL    HW138515   7.209   3.627   4.624 -0.9647 -0.2811 -2.5011
12779SOL    HW238516   7.165   3.773   4.568  1.9221  2.6214  2.0565
12780SOL     OW38517   0.842   2.663   5.358  0.5005 -0.3498 -0.0044
12780SOL    HW138518   0.875   2.602   5.430 -1.0114 -0.0659  0.9709
12780SOL    HW238519   0.852   2.758   5.388  0.5929 -0.2041 -0.4960
12781SOL     OW38520   8.754   6.224   3.336 -0.3267  0.1521  0.1418
12781SOL    HW138521   8.825   6.280   3.293 -0.8069  0.2356 -0.5722
12781SOL    HW238522   8.792   6.136   3.363  0.5730  0.9888  1.7525
12782SOL     OW38523   5.758   6.214   4.124 -0.5359 -0.3665  0.4690
12782SOL    HW138524   5.769   6.279   4.049 -0.8210 -0.2713  0.5090
12782SOL    HW238525   5.802   6.251   4.206  0.6040 -0.8947  0.1107
12783SOL     OW38526   3.811   6.737   7.390 -0.0619 -0.2494 -0.0532
12783SOL    HW138527   3.877   6.810   7.408  0.0313 -0.3084 -0.1523
12783SOL    HW238528   3.854   6.667   7.334 -0.1453 -0.3895  0.0559
12784SOL     OW38529   7.144   6.062   0.473 -0.2134  0.2063  0.3570
12784SOL    HW138530   7.169   5.972   0.439  1.4335  1.4594 -2.0513
12784SOL    HW238531   7.200   6.085   0.552  0.7845 -0.1316 -0.2347
12785SOL     OW38532   4.451   7.237   7.292 -0.4857 -0.1998  0.3323
12785SOL    HW138533   4.419   7.328   7.266  0.6673  0.1736  0.1385
12785SOL    HW238534   4.551   7.238   7.299 -0.3671 -1.6916 -0.6436
12786SOL     OW38535   1.944   3.589   1.777 -0.5784 -0.4337 -0.6576
12786SOL    HW138536   1.982   3.679   1.757 -1.8235  0.1248 -0.6313
12786SOL    HW238537   1.989   3.519   1.721  1.0068  0.0652 -0.0392
12787SOL     OW38538   6.454   6.277   3.502  0.0111  0.7774  0.6360
12787SOL    HW138539   6.447   6.194   3.557  2.1658 -0.7214 -1.1768
12787SOL    HW238540   6.363   6.304   3.470 -0.6003 -1.8367 -0.0317
12788SOL     OW38541   6.617   1.527   1.997 -0.4775  0.4237  0.0132
12788SOL    HW138542   6.542   1.582   1.959 -1.1081  0.3472  1.0947
12788SOL    HW238543   6.603   1.516   2.096  1.6245  1.4372  0.4736
12789SOL     OW38544   1.019   3.148   2.299 -0.1823 -0.6993  0.0342
12789SOL    HW138545   1.014   3.110   2.391 -1.0147 -0.0911  0.2460
12789SOL    HW238546   1.096   3.211   2.293 -0.3647 -0.4381  0.4276
12790SOL     OW38547   0.122   0.318   3.229  1.1147 -0.6867  0.0823
12790SOL    HW138548   0.126   0.374   3.147  0.9862 -0.9225 -0.0836
12790SOL    HW238549   0.212   0.320   3.274  0.9157  0.2386  0.4749
12791SOL     OW38550   6.316   1.211   4.333  0.2358  0.2561 -0.4206
12791SOL    HW138551   6.240   1.247   4.279  0.1848 -0.4475 -0.8208
12791SOL    HW238552   6.352   1.284   4.392 -0.4653  0.7088 -0.5415
12792SOL     OW38553   4.599   2.964   6.323 -0.7232 -0.0413  0.3866
12792SOL    HW138554   4.582   3.062   6.312 -3.8836 -0.6540 -1.5949
12792SOL    HW238555   4.519   2.922   6.366 -1.0592 -2.2129 -2.1307
12793SOL     OW38556   1.837   8.424   4.898  0.1464  0.2277  0.0912
12793SOL    HW138557   1.791   8.394   4.982 -0.1280  0.1745 -0.0748
12793SOL    HW238558   1.850   8.523   4.901 -1.0033  0.4106 -0.3421
12794SOL     OW38559   6.855   2.257   1.896 -0.0396  0.3480 -0.1858
12794SOL    HW138560   6.919   2.199   1.946  1.1270  1.0611 -0.7874
12794SOL    HW238561   6.762   2.236   1.924  0.3438 -1.6958 -0.2877
12795SOL     OW38562   0.969   4.816   0.886 -0.2077  0.0728 -0.3431
12795SOL    HW138563   0.895   4.813   0.819  0.2590 -0.0752 -0.8588
12795SOL    HW238564   1.048   4.767   0.851 -0.9787 -2.8177  1.6174
12796SOL     OW38565   4.395   7.783   3.646  0.2759  0.0445 -0.1574
12796SOL    HW138566   4.421   7.830   3.731 -0.2814 -0.9916  0.6073
12796SOL    HW238567   4.327   7.713   3.666  0.8118 -0.8515 -1.3333
12797SOL     OW38568   2.595   4.216   4.320  0.1007 -1.0071  0.2945
12797SOL    HW138569   2.679   4.212   4.265  0.9434 -1.8302  1.5861
12797SOL    HW238570   2.535   4.141   4.293  0.7627 -1.7590  0.8628
12798SOL     OW38571   3.620   8.328   0.338 -0.1663  0.4298  0.8640
12798SOL    HW138572   3.584   8.236   0.324 -0.0214  0.2490  1.6260
12798SOL    HW238573   3.688   8.327   0.411  0.7587  0.9315  0.0308
12799SOL     OW38574   3.650   2.460   5.108 -0.1217  0.1302 -0.0283
12799SOL    HW138575   3.714   2.469   5.031  0.0424  1.7716  0.2730
12799SOL    HW238576   3.559   2.492   5.079 -0.0751  0.6858  0.4335
12800SOL     OW38577   4.311   1.979   1.385  0.1729 -0.6064 -0.2717
12800SOL    HW138578   4.398   2.006   1.344  0.9346 -2.0180  0.3502
12800SOL    HW238579   4.244   1.959   1.313  0.0384  1.3596 -0.7512
12801SOL     OW38580   1.096   1.410   5.086 -0.3571  0.4218 -0.1616
12801SOL    HW138581   1.190   1.444   5.075  0.1869 -0.9292  0.1382
12801SOL    HW238582   1.082   1.331   5.028 -1.4659  0.8618 -0.5138
12802SOL     OW38583   1.147   4.365   2.351  0.2670 -0.0285 -0.3999
12802SOL    HW138584   1.238   4.377   2.312  1.4840  2.7177  2.8124
12802SOL    HW238585   1.146   4.286   2.412 -0.1762 -1.2419 -1.9043
12803SOL     OW38586   8.640   8.560   8.433 -0.3054  0.0747  0.2096
12803SOL    HW138587   8.679   8.574   8.342 -0.1133 -0.4075  0.2126
12803SOL    HW238588   8.632   8.648   8.480 -0.4566  0.3307 -0.2929
12804SOL     OW38589   4.001   6.142   1.165 -0.2716  0.1865  0.1420
12804SOL    HW138590   4.056   6.068   1.203  0.3026  0.9200  0.7753
12804SOL    HW238591   4.007   6.222   1.225 -3.3894 -0.2226  1.2062
12805SOL     OW38592   2.597   8.122   7.145  0.0722 -0.4559  0.1608
12805SOL    HW138593   2.612   8.025   7.165  1.9886 -0.2907 -0.2640
12805SOL    HW238594   2.655   8.177   7.205  0.1251  0.3561 -0.6128
12806SOL     OW38595   4.791   0.878   5.449  0.2199  0.5016  0.1494
12806SOL    HW138596   4.757   0.943   5.381  1.0392  0.6916 -0.0976
12806SOL    HW238597   4.888   0.896   5.466  0.9155 -1.6537 -1.1365
12807SOL     OW38598   2.123   5.966   0.876  0.1587 -0.4971 -0.3245
12807SOL    HW138599   2.192   5.941   0.809  0.0553 -1.4312 -0.1011
12807SOL    HW238600   2.123   5.899   0.951 -2.0996 -1.5261 -1.1319
12808SOL     OW38601   2.769   4.613   3.428  0.4183 -0.2722  0.3364
12808SOL    HW138602   2.869   4.616   3.427  0.6271 -3.5303 -0.2196
12808SOL    HW238603   2.734   4.620   3.334  0.0991  0.8479  0.5265
12809SOL     OW38604   4.993   0.493   1.945  0.3079  0.3871  0.6668
12809SOL    HW138605   4.975   0.525   1.852  1.3641 -1.2843 -0.1701
12809SOL    HW238606   4.907   0.466   1.988 -0.0884  0.2695 -0.1796
12810SOL     OW38607   1.057   7.913   4.373 -0.1097 -0.3119  0.1084
12810SOL    HW138608   1.103   7.898   4.286  2.1982  0.0908  1.1968
12810SOL    HW238609   0.978   7.972   4.359  0.3384 -0.0843 -1.6614
12811SOL     OW38610   7.807   3.544   0.387  0.1626  0.0776  0.1003
12811SOL    HW138611   7.806   3.479   0.463  0.2621  0.4163  0.3959
12811SOL    HW238612   7.713   3.563   0.358  0.0555  0.7013  0.8026
12812SOL     OW38613   1.407   7.290   3.444  0.6757 -0.3166 -0.3065
12812SOL    HW138614   1.355   7.206   3.429  1.3134 -0.7402 -0.2009
12812SOL    HW238615   1.349   7.369   3.426 -0.7396 -0.7150  2.1160
12813SOL     OW38616   4.168   4.190   2.122  0.3465 -0.0811 -0.0234
12813SOL    HW138617   4.238   4.144   2.176 -1.3267 -3.1693 -0.2884
12813SOL    HW238618   4.123   4.259   2.178  2.7163  1.1595  0.4952
12814SOL     OW38619   8.167   6.759   4.819  0.3137 -0.1450  0.1160
12814SOL    HW138620   8.226   6.687   4.783 -0.4944  0.8145 -3.4724
12814SOL    HW238621   8.074   6.747   4.784 -0.0251  2.1551  0.0837
12815SOL     OW38622   5.543   3.250   6.651  0.4615  0.2230  0.1837
12815SOL    HW138623   5.472   3.223   6.586 -0.0446  1.8805  0.0111
12815SOL    HW238624   5.631   3.255   6.604  0.4334 -0.3743  0.0582
12816SOL     OW38625   7.049   5.680   7.334  0.5264  0.0542 -0.4658
12816SOL    HW138626   7.050   5.608   7.403  1.7622  0.4920  0.0047
12816SOL    HW238627   7.097   5.649   7.252  0.3071  0.0399 -0.5893
12817SOL     OW38628   1.563   2.544   3.468 -0.3863  0.5375 -0.2699
12817SOL    HW138629   1.523   2.607   3.402  1.9689  3.0613  0.5171
12817SOL    HW238630   1.511   2.547   3.553 -0.2033  1.5920 -0.1848
12818SOL     OW38631   5.595   2.987   7.735  0.5677  0.2268 -0.0373
12818SOL    HW138632   5.665   2.917   7.751 -0.1850 -0.5512 -0.0919
12818SOL    HW238633   5.556   3.016   7.822 -1.3606 -1.7731 -0.1437
12819SOL     OW38634   3.437   0.416   5.587 -0.4604 -0.8132 -0.0236
12819SOL    HW138635   3.522   0.417   5.534 -0.2732 -0.4081  0.2789
12819SOL    HW238636   3.373   0.351   5.546 -1.3992  1.4492 -2.4304
12820SOL     OW38637   1.155   1.302   5.335 -0.0321 -0.3804  0.2905
12820SOL    HW138638   1.123   1.371   5.270  1.2961 -1.8568 -2.0760
12820SOL    HW238639   1.077   1.255   5.375 -0.9056 -0.1898 -1.1253
12821SOL     OW38640   2.561   3.551   8.222  0.1473  0.1704 -0.0730
12821SOL    HW138641   2.527   3.644   8.234  2.0040  1.1336 -1.6351
12821SOL    HW238642   2.651   3.542   8.265  1.0106 -0.1687 -1.8414
12822SOL     OW38643   7.708   6.200   6.276 -0.4650  0.2076 -0.1344
12822SOL    HW138644   7.690   6.143   6.356 -0.0450 -0.6462 -0.6377
12822SOL    HW238645   7.804   6.192   6.250 -0.5509  0.6446 -0.6030
12823SOL     OW38646   0.207   7.415   2.906  0.5866 -0.2943 -0.2856
12823SOL    HW138647   0.185   7.444   2.999 -0.2765  0.3941 -0.6807
12823SOL    HW238648   0.305   7.396   2.899  0.4549 -1.6295  1.0866
12824SOL     OW38649   5.722   6.432   3.956 -1.0064 -0.4420 -0.5624
12824SOL    HW138650   5.664   6.483   4.020 -1.7689 -0.3592 -1.3018
12824SOL    HW238651   5.674   6.422   3.869  0.2524 -0.0687 -1.3132
12825SOL     OW38652   4.690   1.971   8.365  0.4854  0.3312 -0.0582
12825SOL    HW138653   4.640   1.972   8.452 -1.3602 -1.2209 -1.0270
12825SOL    HW238654   4.763   1.903   8.370  0.5053  0.3760  0.3236
12826SOL     OW38655   2.078   6.226   7.611  1.0598 -0.0291 -0.3730
12826SOL    HW138656   2.051   6.250   7.704 -1.3116  1.5107 -1.3229
12826SOL    HW238657   2.156   6.164   7.612  0.5005 -0.8050  2.6285
12827SOL     OW38658   0.494   2.634   6.416  0.0467  0.0191 -0.1021
12827SOL    HW138659   0.408   2.640   6.365 -0.5603  2.0216  1.0303
12827SOL    HW238660   0.552   2.711   6.393  1.2091 -0.8678 -0.2265
12828SOL     OW38661   4.047   8.062   7.019 -0.4026  0.7245  0.2236
12828SOL    HW138662   3.974   8.090   7.081  0.9963  0.4518  2.0644
12828SOL    HW238663   4.084   7.974   7.048  3.6095  2.7929  2.1504
12829SOL     OW38664   0.767   6.859   1.527  0.2298  0.2314 -0.6595
12829SOL    HW138665   0.735   6.787   1.465 -1.0993 -0.4843  0.7784
12829SOL    HW238666   0.825   6.819   1.598 -1.0767  0.3778  0.5589
12830SOL     OW38667   3.925   6.308   0.966 -0.7237 -0.0181  0.3928
12830SOL    HW138668   3.905   6.256   0.884  0.8856 -0.8685  0.4997
12830SOL    HW238669   3.975   6.251   1.031 -1.7654  0.7030  1.8867
12831SOL     OW38670   2.798   8.474   2.007 -0.4291  0.2120 -0.4190
12831SOL    HW138671   2.853   8.449   2.086  0.2841 -0.1030 -1.0106
12831SOL    HW238672   2.707   8.501   2.038 -0.7707 -1.6647  0.3832
12832SOL     OW38673   3.351   5.392   3.873 -0.3500  0.6403  0.3287
12832SOL    HW138674   3.331   5.298   3.846 -1.3546  0.7354  0.6747
12832SOL    HW238675   3.438   5.395   3.922 -1.4061 -0.5449  2.4492
12833SOL     OW38676   6.834   7.373   7.682  0.0419 -0.3990 -0.2615
12833SOL    HW138677   6.779   7.455   7.673  1.6794  0.5640 -2.2049
12833SOL    HW238678   6.903   7.387   7.753  0.6228  0.1150 -0.9157
12834SOL     OW38679   7.819   2.586   8.850 -0.2389  0.0406  0.3910
12834SOL    HW138680   7.913   2.569   8.879 -0.0999 -0.5681 -0.3767
12834SOL    HW238681   7.785   2.508   8.798 -0.5911  0.9239 -0.7668
12835SOL     OW38682   0.893   8.651   8.487 -0.2021  0.5363  0.5624
12835SOL    HW138683   0.839   8.732   8.462 -1.3943 -0.7854 -1.4040
12835SOL    HW238684   0.990   8.671   8.475 -0.4527  1.8283  0.5662
12836SOL     OW38685   3.887   8.708   8.120  0.6689  0.0818 -0.1373
12836SOL    HW138686   3.933   8.636   8.068  0.0577  0.4091 -1.1450
12836SOL    HW238687   3.896   8.688   8.218 -0.4118 -1.9656 -0.3899
12837SOL     OW38688   4.832   8.764   2.154 -0.2496 -0.1836 -0.5196
12837SOL    HW138689   4.819   8.668   2.130 -0.3909 -0.4065  0.4374
12837SOL    HW238690   4.748   8.801   2.193  0.1091  0.0453  0.0475
12838SOL     OW38691   6.671   2.795   7.104  0.2742  0.3332  0.2006
12838SOL    HW138692   6.728   2.720   7.138  1.3287  0.1102 -1.8853
12838SOL    HW238693   6.578   2.761   7.088  0.5641 -0.3579 -0.0791
12839SOL     OW38694   2.303   4.934   8.194  0.2500 -0.1813 -0.4644
12839SOL    HW138695   2.256   4.981   8.270 -1.0305  1.0592 -1.9479
12839SOL    HW238696   2.347   5.002   8.136 -0.6538 -0.9001 -2.0419
12840SOL     OW38697   2.151   5.406   5.498  0.2158 -0.1543 -0.3695
12840SOL    HW138698   2.230   5.415   5.437  0.0803 -2.0689 -0.8929
12840SOL    HW238699   2.179   5.358   5.581 -0.2178 -0.1503 -0.2222
12841SOL     OW38700   5.489   7.475   7.919  0.0365  0.2172  0.0800
12841SOL    HW138701   5.555   7.461   7.845 -0.3988 -0.4924 -0.1855
12841SOL    HW238702   5.399   7.443   7.889 -0.4056  1.0735  0.4759
12842SOL     OW38703   8.288   1.610   8.158 -0.4913 -0.6963  0.0189
12842SOL    HW138704   8.228   1.557   8.219 -0.1686  0.6891  1.6020
12842SOL    HW238705   8.382   1.575   8.165 -0.2599  0.0999  1.1401
12843SOL     OW38706   1.625   5.799   3.609  0.0325 -0.5360  1.0225
12843SOL    HW138707   1.615   5.796   3.510 -0.6563  0.6981  1.0324
12843SOL    HW238708   1.689   5.729   3.638  0.0089 -1.1213 -0.2611
12844SOL     OW38709   8.504   4.824   1.232 -0.5273  0.1211  0.0654
12844SOL    HW138710   8.444   4.901   1.257 -0.1864  0.6318 -0.6602
12844SOL    HW238711   8.501   4.755   1.305  0.7704  1.7492  1.7665
12845SOL     OW38712   6.534   3.345   2.402 -0.1005  0.4998 -0.1686
12845SOL    HW138713   6.513   3.268   2.462 -1.4909 -0.3426 -1.6737
12845SOL    HW238714   6.499   3.430   2.443  1.3768  0.3878  1.4598
12846SOL     OW38715   7.251   1.321   8.121  0.3319  0.2650  0.2118
12846SOL    HW138716   7.215   1.407   8.155 -0.5431  0.3589 -0.8837
12846SOL    HW238717   7.176   1.263   8.090  1.0123 -0.1931 -0.6353
12847SOL     OW38718   1.902   4.268   3.456  0.1592  0.0219  0.4733
12847SOL    HW138719   1.956   4.193   3.496  2.0450  1.7501  1.3368
12847SOL    HW238720   1.958   4.350   3.449 -0.4972  0.3443 -4.4150
12848SOL     OW38721   4.068   1.577   0.527 -0.2584  0.3848  0.3857
12848SOL    HW138722   3.988   1.585   0.587 -1.6065 -2.3572 -0.8991
12848SOL    HW238723   4.151   1.570   0.583 -0.4881  5.1361  1.7508
12849SOL     OW38724   7.834   0.879   2.193  0.4261 -0.0595  0.1306
12849SOL    HW138725   7.887   0.952   2.237  0.9832  0.5484 -1.4803
12849SOL    HW238726   7.759   0.919   2.141 -2.9533 -0.9534  3.7673
12850SOL     OW38727   5.766   1.261   7.273 -0.3390 -0.4389  0.0351
12850SOL    HW138728   5.856   1.249   7.316 -1.0569 -4.4515  0.8962
12850SOL    HW238729   5.777   1.303   7.184  2.2908 -0.0585  0.4410
12851SOL     OW38730   8.396   5.784   7.524  0.4835  0.3288  0.3739
12851SOL    HW138731   8.352   5.738   7.447 -1.6000  0.2938  1.5095
12851SOL    HW238732   8.472   5.727   7.557 -1.0152 -1.5804  0.7404
12852SOL     OW38733   4.520   0.881   1.236 -0.2188  0.1567  0.2466
12852SOL    HW138734   4.452   0.930   1.291  0.1246 -1.4922  2.2962
12852SOL    HW238735   4.481   0.796   1.201  0.9148 -1.3312  2.3009
12853SOL     OW38736   5.484   4.284   0.800  0.2152  0.1938 -0.0066
12853SOL    HW138737   5.476   4.383   0.799  1.3120  0.2968  0.2358
12853SOL    HW238738   5.393   4.243   0.798 -0.2505  1.1991  0.1370
12854SOL     OW38739   3.688   6.103   2.932  0.7817 -0.3462  0.2525
12854SOL    HW138740   3.766   6.068   2.879  1.0975  1.6949 -0.7434
12854SOL    HW238741   3.606   6.102   2.875  0.4864 -0.7427  0.6793
12855SOL     OW38742   3.003   5.122   6.016 -0.1378  0.3384 -0.5382
12855SOL    HW138743   3.005   5.075   6.104  0.2993 -0.8168 -1.1408
12855SOL    HW238744   3.087   5.103   5.966  1.0613  3.5020  0.0236
12856SOL     OW38745   2.628   1.638   7.752 -0.1850 -0.1855  0.3164
12856SOL    HW138746   2.642   1.545   7.718 -0.6875 -0.6630  1.3863
12856SOL    HW238747   2.573   1.690   7.686 -0.8426 -0.9798  0.2227
12857SOL     OW38748   3.734   4.841   4.840  0.3014 -0.0469 -0.0122
12857SOL    HW138749   3.810   4.896   4.875  0.0570  0.7898 -0.7397
12857SOL    HW238750   3.664   4.902   4.803 -0.2267 -0.8410 -0.3500
12858SOL     OW38751   4.445   7.991   1.028 -0.1734  0.5365  0.1697
12858SOL    HW138752   4.533   7.973   0.985 -0.7607  0.7742 -1.2037
12858SOL    HW238753   4.412   7.907   1.073  0.5774  0.3503  0.3827
12859SOL     OW38754   1.169   0.279   2.084 -0.2085 -0.2790 -0.2821
12859SOL    HW138755   1.115   0.207   2.128  0.4069  0.8521  2.5532
12859SOL    HW238756   1.260   0.281   2.125  0.8089  0.2177 -2.4384
12860SOL     OW38757   8.605   4.560   4.085 -0.1406 -0.1366  0.2785
12860SOL    HW138758   8.702   4.536   4.079  0.2087  1.2327  0.2154
12860SOL    HW238759   8.571   4.538   4.177  0.6918  0.9687  0.8694
12861SOL     OW38760   7.902   1.688   0.612  0.1030 -0.8981 -0.1522
12861SOL    HW138761   7.804   1.685   0.628  0.0155  1.2189 -0.0381
12861SOL    HW238762   7.948   1.624   0.674 -1.0935 -0.9507  0.7051
12862SOL     OW38763   2.593   6.800   1.439 -0.0795  0.2786 -0.5690
12862SOL    HW138764   2.673   6.746   1.463 -1.2211 -1.7585 -1.1623
12862SOL    HW238765   2.533   6.747   1.379 -1.5188  2.0234 -0.7564
12863SOL     OW38766   1.560   6.157   1.959 -0.4049 -0.0772 -0.0136
12863SOL    HW138767   1.640   6.100   1.977 -0.3921  0.1250  0.6098
12863SOL    HW238768   1.480   6.117   2.005 -0.3825  0.4239  0.4780
12864SOL     OW38769   7.899   5.358   5.784  0.5795  0.0087 -0.5587
12864SOL    HW138770   7.881   5.455   5.766  2.4756  0.2903 -1.1415
12864SOL    HW238771   7.996   5.345   5.800  0.3605 -1.8247 -0.5317
12865SOL     OW38772   4.697   1.002   3.777  0.2223 -0.6866  0.5496
12865SOL    HW138773   4.638   0.928   3.745  0.8357 -0.9039 -0.1196
12865SOL    HW238774   4.739   1.047   3.698  1.9703 -1.3958  1.0242
12866SOL     OW38775   2.496   2.771   2.571  0.3057 -0.2654 -0.3444
12866SOL    HW138776   2.400   2.765   2.546  0.3798  0.3403 -0.8022
12866SOL    HW238777   2.505   2.771   2.671 -0.0084 -2.4373 -0.2888
12867SOL     OW38778   2.078   8.592   4.381  0.2580  0.4235  0.2124
12867SOL    HW138779   2.111   8.571   4.289  0.1544 -0.5125  0.3787
12867SOL    HW238780   2.155   8.622   4.437  0.6146 -0.5024  0.2400
12868SOL     OW38781   5.163   4.568   8.179 -0.6150 -0.1813  0.6875
12868SOL    HW138782   5.131   4.634   8.110 -0.4746 -1.2617 -0.4598
12868SOL    HW238783   5.105   4.487   8.176 -0.8619 -0.0882  2.1725
12869SOL     OW38784   6.313   7.243   1.008 -0.1265 -0.4297  0.2822
12869SOL    HW138785   6.327   7.279   0.916 -0.3331 -0.8900  0.0661
12869SOL    HW238786   6.243   7.171   1.006 -1.0383  0.4138  1.0095
12870SOL     OW38787   3.810   7.215   2.844  0.8298 -0.0682  0.4596
12870SOL    HW138788   3.841   7.179   2.932  0.5503  1.0891  1.0620
12870SOL    HW238789   3.862   7.174   2.770  0.9495 -1.1989  1.1515
12871SOL     OW38790   0.863   6.988   6.960 -0.1050  0.4393 -0.9080
12871SOL    HW138791   0.771   7.023   6.974  0.5249  0.7917  4.4468
12871SOL    HW238792   0.860   6.889   6.946 -1.2476  0.4670 -0.9155
12872SOL     OW38793   2.957   4.551   7.347 -0.3709 -0.3586  0.0310
12872SOL    HW138794   2.967   4.455   7.319 -0.4843 -0.8537  1.5689
12872SOL    HW238795   3.010   4.566   7.431 -0.9644  0.7219  0.2214
12873SOL     OW38796   0.781   3.687   5.624 -0.6290 -0.1205 -0.4018
12873SOL    HW138797   0.839   3.750   5.573 -1.0720 -0.8434 -1.8324
12873SOL    HW238798   0.834   3.606   5.650 -0.3069  0.4029  0.6449
12874SOL     OW38799   5.065   0.298   2.361  0.5192 -0.2078 -0.0988
12874SOL    HW138800   5.103   0.334   2.276 -2.5522  1.9194 -0.7422
12874SOL    HW238801   5.052   0.199   2.352  2.4236 -0.4109 -1.1427
12875SOL     OW38802   5.754   3.212   6.481 -0.2902  0.0205  0.3517
12875SOL    HW138803   5.749   3.282   6.409 -0.9192 -0.1486  0.2231
12875SOL    HW238804   5.749   3.121   6.439 -0.8473 -0.0746  0.6187
12876SOL     OW38805   1.466   8.717   7.195 -0.3292  0.3572  0.5357
12876SOL    HW138806   1.426   8.759   7.276  2.3879  1.5455  1.4036
12876SOL    HW238807   1.559   8.752   7.182  0.1877 -1.5737 -1.7555
12877SOL     OW38808   6.361   0.934   3.479 -0.3425 -0.2503  0.5222
12877SOL    HW138809   6.284   0.979   3.433 -1.5029 -0.7911  1.8633
12877SOL    HW238810   6.349   0.835   3.476  0.8100 -0.3868 -0.0717
12878SOL     OW38811   2.543   8.290   5.843  0.1062 -0.0669 -0.1198
12878SOL    HW138812   2.529   8.236   5.760  0.5601 -0.5303  0.1042
12878SOL    HW238813   2.524   8.386   5.823  1.2405 -0.0043 -1.0515
12879SOL     OW38814   7.187   7.782   7.763 -0.1461 -0.5170  0.4041
12879SOL    HW138815   7.094   7.777   7.801  0.1933 -1.6922  1.1131
12879SOL    HW238816   7.219   7.876   7.768 -0.7777 -0.3364  1.4341
12880SOL     OW38817   2.626   8.506   3.255  0.4872 -0.0417 -0.2166
12880SOL    HW138818   2.587   8.473   3.169 -0.0682 -0.7509  0.2951
12880SOL    HW238819   2.688   8.582   3.237  0.9540 -0.6634 -1.3253
12881SOL     OW38820   3.519   0.830   3.728  0.1530  0.2623  0.3532
12881SOL    HW138821   3.470   0.794   3.807  0.5258  0.0397  0.4874
12881SOL    HW238822   3.460   0.892   3.677 -0.2961 -0.0753  0.4601
12882SOL     OW38823   8.241   8.547   5.032 -0.0604  0.3253 -0.1777
12882SOL    HW138824   8.232   8.530   4.934 -3.6654  0.5919 -0.0042
12882SOL    HW238825   8.200   8.636   5.055 -0.9446 -0.5409  1.8009
12883SOL     OW38826   7.832   1.207   2.834 -0.2375 -0.9458 -0.3335
12883SOL    HW138827   7.755   1.147   2.812 -1.6874  0.3034  1.0757
12883SOL    HW238828   7.874   1.177   2.920 -2.5306  1.3045  1.7495
12884SOL     OW38829   4.347   2.574   7.456  0.1295  0.3161 -0.4416
12884SOL    HW138830   4.303   2.487   7.437 -0.3108  0.4191  0.0976
12884SOL    HW238831   4.334   2.599   7.552  0.4731  0.8498 -0.5244
12885SOL     OW38832   5.829   1.298   1.272  0.8926 -0.1421 -0.1301
12885SOL    HW138833   5.823   1.370   1.341  1.2477  0.7170 -0.9714
12885SOL    HW238834   5.794   1.333   1.185 -0.4618 -1.5058 -0.1834
12886SOL     OW38835   7.985   5.873   7.498 -0.5812  0.1119  0.0806
12886SOL    HW138836   7.940   5.889   7.410  0.9566  1.8025 -0.4770
12886SOL    HW238837   7.940   5.797   7.546 -1.9359 -0.3465 -1.8034
12887SOL     OW38838   3.501   6.876   6.143  0.3418  0.1657 -0.2738
12887SOL    HW138839   3.441   6.826   6.080  1.2396  0.0215 -1.0313
12887SOL    HW238840   3.588   6.828   6.152  0.1627  0.0833  1.2520
12888SOL     OW38841   2.056   6.201   4.189 -0.0062  0.2277  0.3712
12888SOL    HW138842   2.015   6.112   4.171  1.0142 -0.3753  0.9050
12888SOL    HW238843   2.117   6.225   4.114  0.2174  0.1689  0.5325
12889SOL     OW38844   6.183   2.753   5.031  0.1333 -0.1342 -0.1186
12889SOL    HW138845   6.173   2.688   4.956 -0.9077  0.4604 -0.5286
12889SOL    HW238846   6.278   2.786   5.035  0.9256 -2.3495  0.7154
12890SOL     OW38847   3.323   7.378   7.564 -0.2929  0.4835 -0.2100
12890SOL    HW138848   3.283   7.416   7.480  1.1405  0.6496 -0.8386
12890SOL    HW238849   3.378   7.298   7.541  1.3279  1.3868  0.3369
12891SOL     OW38850   4.492   1.330   8.008 -0.3738  0.1656 -0.0985
12891SOL    HW138851   4.433   1.364   7.934 -1.0425 -0.3674  0.1828
12891SOL    HW238852   4.529   1.408   8.059  0.1530  0.5388 -1.0351
12892SOL     OW38853   4.298   8.241   6.121  0.6117 -0.3603  0.2714
12892SOL    HW138854   4.275   8.269   6.214 -1.1043 -0.4307 -0.0884
12892SOL    HW238855   4.294   8.142   6.114  1.7286 -0.4191  0.3470
12893SOL     OW38856   0.808   4.047   4.439 -0.6134  0.4439 -0.3446
12893SOL    HW138857   0.796   4.108   4.361  0.6024  3.2035  1.4349
12893SOL    HW238858   0.905   4.028   4.451 -0.7263  0.4732  0.7215
12894SOL     OW38859   5.110   8.073   8.212  0.2661  0.0525 -0.2864
12894SOL    HW138860   5.156   8.156   8.182 -1.4328  0.5323 -1.7098
12894SOL    HW238861   5.027   8.097   8.261  1.5220 -0.7918  2.4549
12895SOL     OW38862   7.923   8.145   1.859  0.0119 -0.1730 -0.3076
12895SOL    HW138863   7.839   8.198   1.850 -0.3026 -0.8142 -1.3442
12895SOL    HW238864   7.924   8.099   1.947 -0.4988  0.2126 -0.0938
12896SOL     OW38865   6.441   5.704   6.311  0.3235 -0.3224 -0.2137
12896SOL    HW138866   6.343   5.698   6.289  0.0879  1.8090  0.0743
12896SOL    HW238867   6.451   5.723   6.409  0.9653  0.8404 -0.4993
12897SOL     OW38868   2.824   7.755   0.547 -0.6551  0.4206  0.6318
12897SOL    HW138869   2.828   7.662   0.584  0.9177 -0.7490 -2.1403
12897SOL    HW238870   2.917   7.791   0.537 -1.2510  2.4917  2.0004
12898SOL     OW38871   0.327   7.260   7.367  0.1170  0.0102  0.3038
12898SOL    HW138872   0.262   7.191   7.335 -0.6015  1.2347 -0.9672
12898SOL    HW238873   0.413   7.251   7.316  0.1574 -0.1915  0.4078
12899SOL     OW38874   5.347   5.468   6.555  0.2570  0.2745  0.2812
12899SOL    HW138875   5.288   5.547   6.571  1.6724  1.2239  1.0164
12899SOL    HW238876   5.292   5.393   6.516 -0.9446  1.9107 -1.3862
12900SOL     OW38877   6.232   0.141   8.279  0.8044  0.0006 -0.2542
12900SOL    HW138878   6.161   0.071   8.275  0.6251  0.2557 -2.0993
12900SOL    HW238879   6.308   0.117   8.219  1.0648  1.0399 -0.3725
12901SOL     OW38880   5.901   4.563   5.593  0.0423 -0.0957 -0.3074
12901SOL    HW138881   5.943   4.586   5.680 -2.3655  1.2368  0.5916
12901SOL    HW238882   5.881   4.647   5.542 -2.1196 -0.5762 -0.3412
12902SOL     OW38883   5.611   8.539   1.851 -0.0488  0.1625 -0.0273
12902SOL    HW138884   5.680   8.467   1.844 -0.1736  0.2085 -2.1686
12902SOL    HW238885   5.654   8.628   1.839 -0.1034  0.3895  1.3062
12903SOL     OW38886   6.395   5.336   6.044 -0.2182  0.4643 -0.0925
12903SOL    HW138887   6.394   5.436   6.035  0.7378  0.4959  0.0305
12903SOL    HW238888   6.307   5.305   6.078 -0.7945  1.1950 -0.8560
12904SOL     OW38889   2.816   1.772   5.154  0.1149  0.2921 -0.0747
12904SOL    HW138890   2.897   1.814   5.195 -0.8049  0.7782  1.3216
12904SOL    HW238891   2.759   1.733   5.225 -0.9605  0.0892 -1.0153
12905SOL     OW38892   4.119   0.810   4.210 -0.1785 -0.6314 -0.3712
12905SOL    HW138893   4.089   0.718   4.234 -0.4004 -0.0281  1.9672
12905SOL    HW238894   4.040   0.863   4.178 -1.4717  0.3241  3.7553
12906SOL     OW38895   7.493   7.583   6.691  0.7100 -0.3359 -0.1800
12906SOL    HW138896   7.437   7.666   6.698 -0.3039 -1.1235  2.3607
12906SOL    HW238897   7.589   7.608   6.681  0.5416  1.2194  1.5954
12907SOL     OW38898   4.098   0.220   3.867  0.5343  0.1723  0.0461
12907SOL    HW138899   4.191   0.230   3.903  0.0863  0.8958  1.0516
12907SOL    HW238900   4.059   0.133   3.897  1.5960 -1.1428 -2.1129
12908SOL     OW38901   7.782   2.481   4.004 -0.0458 -0.4445  0.2052
12908SOL    HW138902   7.802   2.383   3.997  0.5179 -0.2643 -0.7485
12908SOL    HW238903   7.794   2.525   3.915 -1.2565  0.3240  0.3878
12909SOL     OW38904   6.371   5.778   5.881  0.2351 -0.7059 -0.4081
12909SOL    HW138905   6.422   5.744   5.959 -0.6309  0.3104  0.6508
12909SOL    HW238906   6.427   5.772   5.798  1.5815 -0.7880  0.4796
12910SOL     OW38907   5.304   5.717   5.521  0.0173 -0.4574  0.4372
12910SOL    HW138908   5.217   5.679   5.490  0.2653 -1.1485  0.5539
12910SOL    HW238909   5.287   5.797   5.579 -0.5138 -0.2726  0.0287
12911SOL     OW38910   1.813   2.471   2.010  0.0562 -0.0850  0.5317
12911SOL    HW138911   1.723   2.504   1.983  0.3701  0.0534 -0.3873
12911SOL    HW238912   1.877   2.483   1.934  0.2832 -2.4685  0.2918
12912SOL     OW38913   8.723   0.060   5.748 -0.9583 -0.7689 -0.8071
12912SOL    HW138914   8.713   0.047   5.847  2.8741 -0.9964 -0.2810
12912SOL    HW238915   8.720  -0.028   5.702 -0.2101 -0.9526 -0.5205
12913SOL     OW38916   6.146   3.907   1.816  0.4777  0.5015 -0.3158
12913SOL    HW138917   6.175   3.837   1.881 -0.7489 -0.2871 -0.5793
12913SOL    HW238918   6.174   3.997   1.849  1.9048 -0.0723  0.1305
12914SOL     OW38919   7.513   1.492   4.454 -0.6189 -0.5785  0.1580
12914SOL    HW138920   7.434   1.433   4.437  0.5329 -1.9534 -0.5574
12914SOL    HW238921   7.507   1.530   4.547 -2.4021 -0.1677 -0.0908
12915SOL     OW38922   5.027   8.637   3.595 -0.2087 -0.2141 -0.0923
12915SOL    HW138923   5.042   8.716   3.655  0.4622 -1.6072  1.6730
12915SOL    HW238924   4.955   8.579   3.634 -0.1416 -0.8759 -0.9304
12916SOL     OW38925   3.830   7.602   7.944 -0.2910 -0.4485  0.2045
12916SOL    HW138926   3.855   7.517   7.897 -2.1549 -1.2643  0.6117
12916SOL    HW238927   3.776   7.581   8.025  0.2299  1.0941  1.0044
12917SOL     OW38928   5.646   3.678   7.654  0.0161  0.0772  0.2303
12917SOL    HW138929   5.608   3.678   7.562 -0.8470  0.2430  0.5741
12917SOL    HW238930   5.716   3.607   7.662  2.9052  2.4792 -1.6495
12918SOL     OW38931   1.816   5.996   1.976  0.2084  0.0830  0.2572
12918SOL    HW138932   1.877   6.033   2.045 -0.0805 -0.9660  1.1104
12918SOL    HW238933   1.861   5.920   1.929  0.6762  1.2298 -1.2478
12919SOL     OW38934   5.369   1.553   2.161 -0.1895  0.1550 -0.1420
12919SOL    HW138935   5.375   1.585   2.067  3.5346  0.0856 -0.1078
12919SOL    HW238936   5.284   1.585   2.203 -0.6605  2.5591 -2.6812
12920SOL     OW38937   3.369   4.130   1.133 -0.1269  0.4178  0.3896
12920SOL    HW138938   3.304   4.206   1.128 -0.4110  0.1858  0.5684
12920SOL    HW238939   3.320   4.045   1.153 -0.1561 -0.2528 -2.1928
12921SOL     OW38940   2.397   0.625   8.030  0.0540  0.5469  0.2976
12921SOL    HW138941   2.474   0.593   7.974  0.9169 -0.2413  1.8609
12921SOL    HW238942   2.327   0.554   8.035 -0.2469  0.8057 -0.1560
12922SOL     OW38943   5.331   1.164   1.598 -0.3109  0.8270  0.6029
12922SOL    HW138944   5.248   1.194   1.646 -1.5683 -1.5418  0.0638
12922SOL    HW238945   5.309   1.147   1.502  0.9575  0.6741  0.3200
12923SOL     OW38946   1.931   6.729   6.811 -0.6080  0.0890  0.3009
12923SOL    HW138947   1.986   6.649   6.789  0.5663  0.7766  0.6708
12923SOL    HW238948   1.835   6.702   6.820 -0.5213 -0.9420 -1.4446
12924SOL     OW38949   4.345   0.667   4.261  0.3050 -0.3214  0.6698
12924SOL    HW138950   4.348   0.672   4.361  0.6342  0.6593  0.6190
12924SOL    HW238951   4.306   0.752   4.224 -0.0042 -0.7552 -0.0335
12925SOL     OW38952   0.088   3.002   3.860 -0.2547 -0.3153  0.1306
12925SOL    HW138953   0.034   3.084   3.844 -0.0700  0.0737  1.3667
12925SOL    HW238954   0.028   2.922   3.856 -0.3965 -0.1620 -1.2839
12926SOL     OW38955   6.195   1.972   6.918 -0.1132  0.1457  0.3365
12926SOL    HW138956   6.293   1.955   6.928 -0.2245 -1.0535 -0.3962
12926SOL    HW238957   6.144   1.890   6.943 -0.9210  0.6553  0.4066
12927SOL     OW38958   4.476   6.561   1.557 -0.4165  0.3147  0.2060
12927SOL    HW138959   4.409   6.502   1.601 -0.2690  0.5028  0.6899
12927SOL    HW238960   4.512   6.627   1.624 -0.8272  1.1719 -0.4065
12928SOL     OW38961   5.137   3.621   7.149  0.2038  0.2706 -0.1838
12928SOL    HW138962   5.236   3.634   7.152  0.2243  0.8022 -2.0767
12928SOL    HW238963   5.091   3.706   7.174  0.2820  0.9215 -2.0846
12929SOL     OW38964   4.564   6.498   0.517 -0.5787 -0.0067 -0.1491
12929SOL    HW138965   4.619   6.526   0.596  1.0488 -0.4161 -1.0978
12929SOL    HW238966   4.501   6.426   0.545 -0.8577  0.6677  1.0297
12930SOL     OW38967   7.816   0.049   2.382  0.6372 -0.2117  0.3582
12930SOL    HW138968   7.901   0.086   2.344  0.2634  0.2047 -0.0888
12930SOL    HW238969   7.816   0.062   2.481  0.9012  0.1867  0.3098
12931SOL     OW38970   2.475   4.802   1.320  0.8501 -0.1336 -0.4387
12931SOL    HW138971   2.538   4.726   1.336  1.1177 -0.1164 -1.3718
12931SOL    HW238972   2.415   4.813   1.399  1.1536 -0.9847 -0.0849
12932SOL     OW38973   1.350   7.523   0.015 -0.6405 -0.1348  0.1560
12932SOL    HW138974   1.371   7.517  -0.082 -0.7840 -0.2682  0.1334
12932SOL    HW238975   1.375   7.437   0.060  1.9615  0.8210  0.7328
12933SOL     OW38976   6.806   6.201   6.126  0.3841  0.3252 -0.3944
12933SOL    HW138977   6.870   6.125   6.113  1.3403  0.7936  1.2584
12933SOL    HW238978   6.725   6.167   6.174 -0.1973 -0.0775 -1.6348
12934SOL     OW38979   2.851   4.416   8.390  0.3071 -0.5504  0.8967
12934SOL    HW138980   2.923   4.451   8.450 -0.0275 -0.5879  1.3233
12934SOL    HW238981   2.873   4.440   8.295  2.2616 -2.8366  0.6723
12935SOL     OW38982   1.541   4.280   5.668  0.3001  0.0044 -0.2688
12935SOL    HW138983   1.479   4.204   5.689  0.3206  0.2190  0.6354
12935SOL    HW238984   1.635   4.248   5.671  0.2852 -0.0518 -0.4084
12936SOL     OW38985   5.989   8.699   8.761  0.0376  0.0130 -0.4162
12936SOL    HW138986   5.965   8.751   8.843  0.9156  1.0423 -0.7885
12936SOL    HW238987   5.982   8.758   8.680  0.1519 -0.7092 -0.9631
12937SOL     OW38988   1.095   1.230   3.801  0.4073 -0.4100 -0.3856
12937SOL    HW138989   1.121   1.296   3.731 -0.9575  0.3070 -0.2437
12937SOL    HW238990   1.139   1.254   3.887  1.7471 -1.0447 -0.8620
12938SOL     OW38991   8.847   0.852   1.138 -0.0542  0.9037  0.1039
12938SOL    HW138992   8.831   0.911   1.217 -0.9616 -0.0330  0.6614
12938SOL    HW238993   8.945   0.842   1.123  0.1169  2.2486  0.2052
12939SOL     OW38994   4.638   1.378   8.520  0.1869  0.0256 -0.4380
12939SOL    HW138995   4.561   1.378   8.457  0.3228  1.6628 -0.6533
12939SOL    HW238996   4.720   1.345   8.472 -0.1215 -0.6122 -0.5364
12940SOL     OW38997   4.523   5.905   0.698 -0.3024  0.3002  0.1844
12940SOL    HW138998   4.543   5.832   0.633  1.8894 -0.4711  1.5968
12940SOL    HW238999   4.531   5.994   0.653 -2.1565 -0.2567 -1.3522
12941SOL     OW39000   5.846   0.087   0.436 -0.2190  0.5922 -0.2398
12941SOL    HW139001   5.759   0.086   0.387  0.5675  0.3414 -1.6930
12941SOL    HW239002   5.873   0.182   0.454 -0.9398  0.6624  0.5247
12942SOL     OW39003   3.930   4.542   7.030  0.4721  0.0033  0.0378
12942SOL    HW139004   3.970   4.476   6.967 -0.8710 -0.2923 -0.5476
12942SOL    HW239005   3.868   4.602   6.980  0.8765  1.0388  0.7528
12943SOL     OW39006   5.987   0.702   5.724  0.4504 -0.5162 -0.3282
12943SOL    HW139007   5.949   0.639   5.656  0.4418 -1.9889  0.9643
12943SOL    HW239008   5.945   0.792   5.714 -2.5967 -1.7428  0.2849
12944SOL     OW39009   4.972   0.631   8.556 -0.4955 -0.1720  0.7208
12944SOL    HW139010   4.996   0.681   8.639 -2.4375  1.2016  0.5421
12944SOL    HW239011   5.052   0.623   8.497  0.2936  1.2620  1.5412
12945SOL     OW39012   7.908   7.884   2.450  0.1693  0.4263  0.3872
12945SOL    HW139013   7.869   7.950   2.514  1.5494  0.1431  1.5533
12945SOL    HW239014   7.839   7.815   2.428 -0.4828  0.8077  1.1599
12946SOL     OW39015   7.697   5.588   6.818 -0.4475 -0.2181  0.1761
12946SOL    HW139016   7.792   5.565   6.794  0.4864  2.1581  1.2755
12946SOL    HW239017   7.670   5.538   6.900  1.0525  1.3626  1.7283
12947SOL     OW39018   4.051   8.574   1.323 -0.3337  0.0588 -0.3331
12947SOL    HW139019   4.098   8.585   1.236  0.7648 -0.0827  0.2238
12947SOL    HW239020   4.099   8.627   1.394 -1.2796  0.2728  0.1624
12948SOL     OW39021   1.991   1.010   2.697 -0.0726 -0.0748  0.4328
12948SOL    HW139022   2.001   0.964   2.784  1.7147 -1.4130 -0.4335
12948SOL    HW239023   1.972   0.943   2.625 -0.9084  0.9335 -0.3247
12949SOL     OW39024   3.764   7.713   5.131 -0.2253 -0.1930  0.4329
12949SOL    HW139025   3.761   7.774   5.052  1.5854  0.4586  0.8208
12949SOL    HW239026   3.705   7.634   5.114 -0.6220  0.3986 -1.1481
12950SOL     OW39027   6.972   4.003   3.698 -0.4410  0.5706 -0.2022
12950SOL    HW139028   6.912   3.926   3.679  1.2232 -0.8078 -0.1614
12950SOL    HW239029   6.992   4.006   3.796 -0.3399  0.9235 -0.2322
12951SOL     OW39030   1.937   2.776   0.579  0.2880  0.1589  0.1154
12951SOL    HW139031   1.855   2.773   0.522 -0.2503  2.0389  0.7312
12951SOL    HW239032   2.004   2.840   0.540 -0.7382  2.7469  2.2953
12952SOL     OW39033   5.772   2.200   5.894 -0.0928 -0.1942 -0.4621
12952SOL    HW139034   5.779   2.156   5.984 -0.3178 -0.8156 -0.7411
12952SOL    HW239035   5.678   2.190   5.859  0.5033 -1.9570 -1.7424
12953SOL     OW39036   6.251   0.970   3.045 -0.0530  0.0809 -0.3934
12953SOL    HW139037   6.164   1.002   3.008 -0.1715 -2.0160 -2.1547
12953SOL    HW239038   6.293   1.042   3.100 -1.9109  1.8792 -1.2144
12954SOL     OW39039   6.254   8.571   5.113  0.2538 -0.0979 -0.2142
12954SOL    HW139040   6.232   8.541   5.205  3.0659 -1.1030  0.2328
12954SOL    HW239041   6.353   8.580   5.104  0.1504 -1.0714 -3.4550
12955SOL     OW39042   0.697   3.770   5.910  0.6037 -0.4119 -0.9906
12955SOL    HW139043   0.647   3.849   5.944  0.0181 -0.8221 -0.8855
12955SOL    HW239044   0.682   3.760   5.811 -2.0417 -2.2659 -0.5150
12956SOL     OW39045   3.606   4.948   6.461  0.2241  0.3694  0.1570
12956SOL    HW139046   3.686   4.997   6.497  1.4021 -2.3311  1.5029
12956SOL    HW239047   3.627   4.911   6.371  0.5969 -0.5346  0.6089
12957SOL     OW39048   3.704   2.326   1.752 -0.6784 -0.3675 -0.4335
12957SOL    HW139049   3.652   2.407   1.779 -0.9233 -0.7464  0.2460
12957SOL    HW239050   3.766   2.300   1.827  2.1252  1.3387 -1.9513
12958SOL     OW39051   1.684   0.616   6.905  0.4832  0.1037 -0.3236
12958SOL    HW139052   1.757   0.651   6.846  1.0557  2.1086  1.4710
12958SOL    HW239053   1.608   0.682   6.907 -0.1653 -0.6365  0.0410
12959SOL     OW39054   6.060   0.628   7.300  0.5348  0.0857 -0.1117
12959SOL    HW139055   5.971   0.643   7.343  0.0149  0.9509 -1.4080
12959SOL    HW239056   6.090   0.535   7.318 -0.6162 -0.2195  0.3773
12960SOL     OW39057   5.315   3.318   1.844  0.5666  0.1817 -0.3291
12960SOL    HW139058   5.253   3.377   1.895  1.5679  0.5124  0.5465
12960SOL    HW239059   5.340   3.239   1.900  0.8304 -0.0192 -0.7233
12961SOL     OW39060   1.670   6.106   4.341  0.9751  0.1999  0.3705
12961SOL    HW139061   1.737   6.162   4.290  1.8414  0.3634  1.6367
12961SOL    HW239062   1.578   6.138   4.319  1.3479  0.6573 -0.6321
12962SOL     OW39063   8.150   2.762   3.741 -0.0474  0.0226  0.1719
12962SOL    HW139064   8.130   2.845   3.794  1.4366  0.3994  0.2048
12962SOL    HW239065   8.230   2.716   3.781  0.1299 -0.5451 -0.8079
12963SOL     OW39066   1.312   6.484   4.563  0.3056  0.3008 -0.2194
12963SOL    HW139067   1.341   6.534   4.481  2.6985 -1.2909 -0.4571
12963SOL    HW239068   1.392   6.441   4.605 -1.5057 -2.7902  0.3032
12964SOL     OW39069   8.633   2.630   8.376  0.1334 -0.2199  0.3408
12964SOL    HW139070   8.703   2.578   8.327 -0.7596 -0.2354 -0.9817
12964SOL    HW239071   8.558   2.650   8.313 -0.7753  0.3037  1.5759
12965SOL     OW39072   3.886   5.537   3.210  0.0492 -0.3099 -0.1272
12965SOL    HW139073   3.910   5.554   3.306 -0.7743 -0.8594  0.1900
12965SOL    HW239074   3.793   5.570   3.193  0.5620  0.7452 -1.0251
12966SOL     OW39075   5.067   7.885   4.891  0.2192 -0.1233  0.3057
12966SOL    HW139076   5.053   7.960   4.826  0.1022 -0.8186 -0.4928
12966SOL    HW239077   4.986   7.875   4.949 -1.4489 -2.0518 -2.1336
12967SOL     OW39078   3.957   6.331   0.370 -0.2889 -0.0549  0.2251
12967SOL    HW139079   4.000   6.331   0.460  0.5062  1.1661 -0.1324
12967SOL    HW239080   3.993   6.407   0.316  1.1201 -2.1811 -2.0340
12968SOL     OW39081   3.069   1.975   8.562 -0.2524  0.4897  0.1977
12968SOL    HW139082   3.062   1.928   8.650 -0.5981  1.3288  0.6324
12968SOL    HW239083   3.154   1.948   8.517 -0.3724 -0.4383  0.4885
12969SOL     OW39084   8.719   4.744   5.888  0.2790  0.1316  0.0633
12969SOL    HW139085   8.783   4.795   5.946 -0.4819  1.2451 -0.0286
12969SOL    HW239086   8.739   4.762   5.792 -0.1964  0.5603  0.0345
12970SOL     OW39087   2.906   1.783   5.992  0.5053  0.2254 -0.4969
12970SOL    HW139088   2.835   1.822   6.050  1.1619  0.1229  0.3906
12970SOL    HW239089   2.893   1.815   5.898 -1.2672 -0.5301 -0.5541
12971SOL     OW39090   1.549   5.101   3.901 -0.4020 -0.4116  0.3569
12971SOL    HW139091   1.546   5.168   3.975 -1.1522 -1.4926  1.3496
12971SOL    HW239092   1.461   5.054   3.895  0.4440 -2.0958  0.4600
12972SOL     OW39093   7.853   1.338   6.009  0.1850  0.2529  0.5389
12972SOL    HW139094   7.914   1.415   6.024 -2.0360  2.1880  0.3062
12972SOL    HW239095   7.881   1.289   5.926  1.0051  1.5014  0.0520
12973SOL     OW39096   0.529   4.111   7.854 -0.0666  0.2333  0.3104
12973SOL    HW139097   0.539   4.172   7.933  1.4452 -0.6281  0.8419
12973SOL    HW239098   0.532   4.016   7.886  0.6119 -0.1306 -0.7757
12974SOL     OW39099   3.640   3.719   7.705 -0.9479  0.1910  0.1580
12974SOL    HW139100   3.622   3.623   7.727 -1.3294 -0.1391 -1.4559
12974SOL    HW239101   3.739   3.732   7.691 -0.9767 -0.1737 -0.4341
12975SOL     OW39102   3.932   3.488   8.465 -0.1316 -0.1612 -0.3884
12975SOL    HW139103   3.977   3.565   8.419 -0.6947 -0.7151 -1.9262
12975SOL    HW239104   3.833   3.494   8.449 -0.4662  0.1718  1.6219
12976SOL     OW39105   0.316   1.017   6.498 -0.4532  0.3701  0.2615
12976SOL    HW139106   0.286   0.949   6.430 -1.9438  0.3739  0.8817
12976SOL    HW239107   0.395   1.067   6.462 -0.7732 -0.1049 -1.1750
12977SOL     OW39108   6.608   6.842   4.967  0.0853  0.4374 -0.0786
12977SOL    HW139109   6.546   6.808   5.038  0.5481  0.5979  0.4088
12977SOL    HW239110   6.617   6.773   4.895 -0.1455  0.1457  0.1692
12978SOL     OW39111   7.737   8.430   0.597 -0.2852 -0.0549 -0.1658
12978SOL    HW139112   7.727   8.529   0.613 -1.6128 -0.3721  1.1121
12978SOL    HW239113   7.668   8.401   0.531  0.2148 -0.1219 -0.6696
12979SOL     OW39114   1.504   8.837   5.665  0.1554  0.1415 -0.1277
12979SOL    HW139115   1.571   8.885   5.608 -0.8149  0.9997 -0.5914
12979SOL    HW239116   1.451   8.774   5.609 -0.4213  0.5680 -0.0668
12980SOL     OW39117   1.352   1.295   2.852 -0.3387 -0.0538 -0.5424
12980SOL    HW139118   1.420   1.349   2.802 -1.2613  0.5809 -1.1606
12980SOL    HW239119   1.287   1.357   2.896 -1.3082 -0.6467 -1.1073
12981SOL     OW39120   0.792   7.004   2.006 -0.0336 -0.5972  0.2144
12981SOL    HW139121   0.821   7.096   1.982 -0.0171 -0.7431 -0.3469
12981SOL    HW239122   0.734   7.007   2.088  0.4785 -0.1631  0.5633
12982SOL     OW39123   5.199   2.534   0.811 -0.1933 -0.7381  0.2238
12982SOL    HW139124   5.216   2.591   0.891 -0.7627 -0.6208  0.2673
12982SOL    HW239125   5.131   2.579   0.752  0.5894 -0.5899 -0.5742
12983SOL     OW39126   7.611   1.806   4.616  0.0302 -0.5175 -0.1119
12983SOL    HW139127   7.646   1.868   4.686 -0.9654 -0.7255  0.6000
12983SOL    HW239128   7.542   1.746   4.657 -1.0115 -0.2479 -1.3988
12984SOL     OW39129   8.784   2.210   5.268  0.0269  1.0827 -0.1465
12984SOL    HW139130   8.862   2.229   5.208  0.6888 -1.2485 -0.1186
12984SOL    HW239131   8.818   2.193   5.361 -0.5854  0.6958  0.0061
12985SOL     OW39132   4.429   1.869   6.956  0.3242  0.3613 -0.3852
12985SOL    HW139133   4.444   1.774   6.985 -1.9914 -0.4387 -1.5918
12985SOL    HW239134   4.415   1.872   6.858  0.7051  2.0401 -0.4188
12986SOL     OW39135   3.586   1.554   5.898 -0.0494 -0.0555 -0.6102
12986SOL    HW139136   3.590   1.654   5.900 -2.0963  0.0676  1.0069
12986SOL    HW239137   3.678   1.517   5.906  0.7168  1.6759 -0.8509
12987SOL     OW39138   4.284   3.844   6.533  0.0685 -0.2302  0.7187
12987SOL    HW139139   4.267   3.750   6.503 -0.3915 -0.0813  0.4967
12987SOL    HW239140   4.360   3.882   6.481 -0.3800 -0.1549  0.0983
12988SOL     OW39141   6.172   7.791   1.454  0.3355  0.0479  0.5402
12988SOL    HW139142   6.192   7.770   1.359  0.0137 -1.5965  0.8130
12988SOL    HW239143   6.075   7.775   1.472  0.4866 -0.1022  1.2466
12989SOL     OW39144   3.998   2.444   5.879 -0.0300  0.3168  0.2685
12989SOL    HW139145   4.059   2.458   5.957  0.1723 -1.6621  0.5141
12989SOL    HW239146   3.915   2.498   5.891  0.1833  0.3638  1.6530
12990SOL     OW39147   8.323   0.075   0.586  0.1477 -0.0727 -0.3078
12990SOL    HW139148   8.326   0.093   0.488  1.8830 -1.0048 -0.4652
12990SOL    HW239149   8.229   0.083   0.618 -0.6663 -0.9983 -2.2867
12991SOL     OW39150   4.883   7.043   2.276 -0.5556 -0.1625 -0.2398
12991SOL    HW139151   4.940   6.964   2.253  0.9945  1.0368 -0.7290
12991SOL    HW239152   4.820   7.019   2.350  0.5581 -1.5608  0.2961
12992SOL     OW39153   5.184   2.961   7.795 -0.3837  0.6911 -0.2262
12992SOL    HW139154   5.248   2.885   7.800 -0.6408  0.4580 -0.4269
12992SOL    HW239155   5.115   2.942   7.725 -0.4132  1.1367 -0.3232
12993SOL     OW39156   7.171   3.197   1.393 -0.2912  0.3409 -0.5019
12993SOL    HW139157   7.125   3.275   1.435  0.3084  0.8858 -0.8298
12993SOL    HW239158   7.114   3.160   1.320 -0.8666  0.0596  0.0839
12994SOL     OW39159   5.454   0.679   4.065  1.2819  0.0522  0.1012
12994SOL    HW139160   5.552   0.689   4.084  1.4107 -2.4445  1.2473
12994SOL    HW239161   5.422   0.592   4.103 -0.9609 -0.1545 -2.0133
12995SOL     OW39162   3.319   4.217   0.392 -0.0154 -0.2146 -0.0954
12995SOL    HW139163   3.323   4.163   0.476  1.9275 -1.1376 -0.7142
12995SOL    HW239164   3.226   4.213   0.354 -0.4316 -1.4020  0.9700
12996SOL     OW39165   5.187   4.876   2.480  0.2621  0.3597  0.6823
12996SOL    HW139166   5.185   4.966   2.524  1.6137  1.2869 -1.0646
12996SOL    HW239167   5.107   4.824   2.509 -0.2990  1.9287  2.1155
12997SOL     OW39168   8.341   2.974   2.953 -0.0101 -0.2348 -0.0640
12997SOL    HW139169   8.353   2.878   2.930  0.9736  0.2955 -1.9849
12997SOL    HW239170   8.431   3.016   2.967 -0.4727  0.1361  2.1329
12998SOL     OW39171   1.522   1.641   3.462 -0.5640 -0.0710 -0.4063
12998SOL    HW139172   1.598   1.598   3.510 -1.7605 -1.4932  0.2601
12998SOL    HW239173   1.534   1.741   3.464  0.0891 -0.1492  1.6884
12999SOL     OW39174   3.269   4.083   3.246  0.3310  0.3693  0.0822
12999SOL    HW139175   3.268   3.994   3.293 -0.1560 -0.3519 -1.2590
12999SOL    HW239176   3.272   4.069   3.148 -1.2347  1.8239 -0.2162
13000SOL     OW39177   2.661   6.301   5.036  0.1110  0.1954  0.3183
13000SOL    HW139178   2.690   6.206   5.044 -1.9599 -0.5164 -0.1329
13000SOL    HW239179   2.662   6.329   4.940  0.2363  0.4754  0.3982
13001SOL     OW39180   5.412   5.120   4.640  0.1649 -0.3404  0.5288
13001SOL    HW139181   5.404   5.215   4.670 -1.1300 -0.2560 -0.0228
13001SOL    HW239182   5.484   5.113   4.571 -0.2806  0.3990 -0.0258
13002SOL     OW39183   5.980   2.757   0.715  0.4134 -0.7238  0.4164
13002SOL    HW139184   5.897   2.794   0.756  0.3606  0.6296 -0.8404
13002SOL    HW239185   5.970   2.658   0.705 -0.8818 -0.6396  0.6333
13003SOL     OW39186   4.430   6.815   3.168 -0.4521  0.1756  0.0079
13003SOL    HW139187   4.357   6.797   3.101  0.2462  0.5995 -0.8950
13003SOL    HW239188   4.474   6.903   3.146 -0.5580  0.5811  1.3555
13004SOL     OW39189   0.069   7.308   8.235 -0.0403 -0.8631  0.0060
13004SOL    HW139190   0.150   7.282   8.287  0.7132 -0.5650 -0.9970
13004SOL    HW239191  -0.013   7.279   8.285  0.7076 -2.8189  0.1621
13005SOL     OW39192   3.894   8.648   5.594  0.2530 -0.0472 -0.0962
13005SOL    HW139193   3.989   8.618   5.588  0.8288  1.3758  1.1441
13005SOL    HW239194   3.887   8.720   5.664 -1.7289 -0.0998 -0.2011
13006SOL     OW39195   5.796   3.174   1.078 -0.1224 -0.7894 -0.0747
13006SOL    HW139196   5.709   3.126   1.088 -0.0905 -1.0233 -0.8713
13006SOL    HW239197   5.794   3.259   1.131 -0.1742 -1.6563  1.3518
13007SOL     OW39198   7.698   2.543   6.650 -0.5821  0.2957  0.1099
13007SOL    HW139199   7.606   2.510   6.631 -0.9465  1.4235 -0.1209
13007SOL    HW239200   7.763   2.468   6.637 -1.3675 -0.2906 -0.5560
13008SOL     OW39201   1.469   4.116   2.117 -0.0775 -0.6755 -0.1481
13008SOL    HW139202   1.511   4.036   2.161  0.4526 -0.9676 -1.1680
13008SOL    HW239203   1.485   4.112   2.019  2.3712  2.0783  0.0062
13009SOL     OW39204   0.349   5.789   6.705 -0.4187 -0.4486 -0.1401
13009SOL    HW139205   0.439   5.780   6.747 -0.5601  0.2273  0.3210
13009SOL    HW239206   0.355   5.771   6.607  0.0918 -1.0769  0.0033
13010SOL     OW39207   7.487   1.113   4.766  0.3609 -0.5925 -0.4697
13010SOL    HW139208   7.498   1.167   4.850  2.0102 -2.1395  0.3837
13010SOL    HW239209   7.423   1.038   4.783 -0.5399  0.0177 -1.1079
13011SOL     OW39210   3.625   0.593   2.071  0.1871 -0.0110 -0.4741
13011SOL    HW139211   3.527   0.590   2.052  0.1499 -1.3093 -0.1831
13011SOL    HW239212   3.655   0.504   2.105  1.2623  0.6992  0.5035
13012SOL     OW39213   6.439   1.571   2.448 -0.3547  1.1032 -0.0242
13012SOL    HW139214   6.512   1.617   2.397 -0.4847 -1.2021 -2.4918
13012SOL    HW239215   6.477   1.533   2.532  1.6266 -0.7992 -1.6635
13013SOL     OW39216   8.082   0.134   1.870  0.2258 -0.1207  0.2451
13013SOL    HW139217   8.137   0.195   1.927  2.0292 -1.4609  0.0388
13013SOL    HW239218   8.138   0.100   1.794 -0.6799 -2.0581  0.3848
13014SOL     OW39219   3.102   7.671   1.350 -0.4798 -0.2134  0.1031
13014SOL    HW139220   3.007   7.645   1.328 -1.4102  2.6652  0.3134
13014SOL    HW239221   3.153   7.683   1.265 -0.2925 -1.6744 -0.0164
13015SOL     OW39222   4.486   5.796   3.237  0.2112  0.2591  0.0105
13015SOL    HW139223   4.418   5.830   3.173  1.9542 -0.6606 -2.4708
13015SOL    HW239224   4.451   5.716   3.285 -2.0315  2.3762  2.1754
13016SOL     OW39225   2.041   1.354   7.613  0.1001 -0.4076  0.2198
13016SOL    HW139226   2.006   1.306   7.693 -0.0801 -0.2298  0.2494
13016SOL    HW239227   2.130   1.394   7.634 -0.1146 -0.0450  0.4536
13017SOL     OW39228   3.840   7.958   6.455  0.1152  0.7093 -1.0573
13017SOL    HW139229   3.846   7.982   6.552 -2.8602  1.1119 -0.8834
13017SOL    HW239230   3.776   7.882   6.444  0.8218  0.3105 -2.6946
13018SOL     OW39231   6.708   4.922   1.323  0.1868 -0.3049  0.2405
13018SOL    HW139232   6.771   4.850   1.296  2.5912  0.7784  2.4282
13018SOL    HW239233   6.725   4.946   1.419 -2.1799  1.5262  0.2967
13019SOL     OW39234   0.639   3.856   0.011  0.0355 -0.0316  0.6473
13019SOL    HW139235   0.564   3.908  -0.032  1.0511  1.0516  0.1477
13019SOL    HW239236   0.614   3.832   0.105 -1.2807 -0.4369  0.2191
13020SOL     OW39237   7.991   1.935   8.466 -0.1035  0.1910 -0.4384
13020SOL    HW139238   8.052   1.893   8.533 -2.2096 -1.5849  0.5005
13020SOL    HW239239   7.975   1.871   8.391 -1.5482  0.2044 -0.1643
13021SOL     OW39240   4.014   1.018   5.158 -0.0656  0.4040 -0.4646
13021SOL    HW139241   3.966   1.002   5.072 -2.1962  0.0577  0.7071
13021SOL    HW239242   3.962   1.084   5.213 -0.3465 -1.4738  1.6999
13022SOL     OW39243   1.340   2.129   0.083  0.0234 -0.0578  0.3211
13022SOL    HW139244   1.361   2.059   0.151  1.3792  0.3887  0.3869
13022SOL    HW239245   1.250   2.110   0.042  1.0188 -2.7823 -0.8290
13023SOL     OW39246   8.229   6.363   3.954 -0.1602 -0.4365  0.4040
13023SOL    HW139247   8.185   6.410   4.031 -1.1996  0.5833 -0.7681
13023SOL    HW239248   8.311   6.316   3.986  0.0225  0.8468  1.9329
13024SOL     OW39249   4.759   2.560   1.521 -0.2747 -0.2411 -0.3768
13024SOL    HW139250   4.699   2.552   1.442 -1.1334 -0.4986  0.2930
13024SOL    HW239251   4.805   2.649   1.519  0.8852 -0.8067 -1.9618
13025SOL     OW39252   8.607   2.471   7.777 -0.4535 -0.2948 -0.5162
13025SOL    HW139253   8.693   2.522   7.775 -0.7914  0.3109 -0.0335
13025SOL    HW239254   8.534   2.528   7.740 -0.7915 -0.5345 -0.2181
13026SOL     OW39255   2.711   4.714   1.818  0.2890  0.1085 -0.5684
13026SOL    HW139256   2.739   4.808   1.836  0.4715  0.0558 -0.5763
13026SOL    HW239257   2.612   4.710   1.803  0.5411  0.6348 -2.7403
13027SOL     OW39258   7.393   5.916   8.749  0.4063 -0.0192  0.8256
13027SOL    HW139259   7.388   5.993   8.814 -0.1168  1.3280 -0.7589
13027SOL    HW239260   7.463   5.935   8.681  0.1800 -0.9167  0.3304
13028SOL     OW39261   3.290   2.404   0.099  0.1130 -0.0770  0.7912
13028SOL    HW139262   3.199   2.362   0.097  0.7083 -1.4206  0.8992
13028SOL    HW239263   3.352   2.348   0.154  1.4062  0.0080 -0.5030
13029SOL     OW39264   6.690   6.846   1.996  0.2553 -0.2217  0.0085
13029SOL    HW139265   6.677   6.747   1.989 -0.2098 -0.2663  1.2205
13029SOL    HW239266   6.691   6.872   2.092 -0.0633  1.0094 -0.3062
13030SOL     OW39267   0.397   0.195   3.974 -0.1356  0.2161 -0.3940
13030SOL    HW139268   0.348   0.280   3.991 -1.9842 -0.9388  0.2486
13030SOL    HW239269   0.487   0.199   4.017  0.1740  2.1645 -1.1375
13031SOL     OW39270   7.193   8.734   1.525  0.1632  0.7083  0.1040
13031SOL    HW139271   7.103   8.778   1.520 -0.4251 -0.4791 -0.0517
13031SOL    HW239272   7.205   8.693   1.615  0.3431  0.4653 -0.0290
13032SOL     OW39273   5.909   7.153   0.177 -0.1476 -0.1034 -0.3587
13032SOL    HW139274   5.882   7.158   0.273  2.1407  0.2939  0.3395
13032SOL    HW239275   5.927   7.245   0.143  1.7730 -0.3967 -0.2582
13033SOL     OW39276   2.680   1.054   8.760  0.7036  0.2286  0.4161
13033SOL    HW139277   2.754   0.995   8.792  1.9374  0.8063 -1.2347
13033SOL    HW239278   2.627   1.086   8.838  0.0390 -2.9089  1.3926
13034SOL     OW39279   0.073   3.214   4.112  0.8926  0.4186 -0.0607
13034SOL    HW139280   0.020   3.173   4.037 -0.7816 -2.0555  2.3074
13034SOL    HW239281   0.162   3.168   4.118  0.3694 -0.5432  0.4709
13035SOL     OW39282   8.697   4.876   0.785 -0.6302 -0.2053  0.1887
13035SOL    HW139283   8.659   4.814   0.854  0.7211  0.6259  1.7287
13035SOL    HW239284   8.634   4.953   0.771 -0.6047 -0.0322  0.9983
13036SOL     OW39285   8.679   4.298   5.782  0.1533 -0.1582 -0.5736
13036SOL    HW139286   8.741   4.330   5.711  0.0440 -0.4331 -0.7935
13036SOL    HW239287   8.588   4.284   5.743  0.1129 -0.3876 -0.3986
13037SOL     OW39288   5.442   0.518   4.786 -0.0452  0.0551  0.0770
13037SOL    HW139289   5.408   0.449   4.723 -0.3601  0.1697  0.1221
13037SOL    HW239290   5.542   0.514   4.789 -0.0767 -2.7339  2.6026
13038SOL     OW39291   0.210   6.360   6.939 -0.3043 -0.1292 -0.2181
13038SOL    HW139292   0.245   6.338   7.031 -0.6301  0.9667  0.1799
13038SOL    HW239293   0.197   6.458   6.931 -0.4307 -0.2326 -1.4032
13039SOL     OW39294   4.259   3.394   6.071 -0.3838 -0.6408 -0.3917
13039SOL    HW139295   4.221   3.333   6.001  2.7924 -1.7958 -1.2764
13039SOL    HW239296   4.215   3.375   6.159 -1.9533 -1.6922 -1.3539
13040SOL     OW39297   1.165   8.720   8.466 -0.7203  0.0703 -0.4858
13040SOL    HW139298   1.175   8.734   8.367 -0.2154  1.1261 -0.2966
13040SOL    HW239299   1.194   8.802   8.514 -1.5789 -0.2018  0.5263
13041SOL     OW39300   8.644   8.632   2.060  0.6041  0.4492 -0.2624
13041SOL    HW139301   8.604   8.554   2.109  2.6011 -0.0022  0.7362
13041SOL    HW239302   8.654   8.608   1.963 -1.4123  0.5657 -0.5506
13042SOL     OW39303   1.406   1.233   8.457 -0.5474 -0.0180 -1.0545
13042SOL    HW139304   1.431   1.162   8.522 -3.1326 -0.6998 -0.6692
13042SOL    HW239305   1.401   1.321   8.504 -1.9368 -0.4301 -0.3514
13043SOL     OW39306   5.618   6.585   4.628 -0.3963  0.3355  0.0813
13043SOL    HW139307   5.597   6.581   4.726 -2.0141 -1.0922 -0.2827
13043SOL    HW239308   5.627   6.492   4.592 -2.0356  0.7738 -1.5707
13044SOL     OW39309   7.172   7.367   6.346 -0.0496  0.2869  0.3945
13044SOL    HW139310   7.201   7.374   6.250  2.7289  1.2420  1.1975
13044SOL    HW239311   7.156   7.459   6.382  0.2585  0.0309  1.2015
13045SOL     OW39312   8.813   8.218   4.907 -0.3180 -0.2513 -0.4250
13045SOL    HW139313   8.836   8.284   4.979  0.4587 -1.4999  0.5197
13045SOL    HW239314   8.807   8.265   4.819  2.9671  0.6708 -0.2749
13046SOL     OW39315   5.884   6.016   3.992 -0.1131  0.0131 -0.5139
13046SOL    HW139316   5.852   6.080   4.062  0.0079  0.2464 -0.6697
13046SOL    HW239317   5.970   5.975   4.021 -0.6731 -0.7944  0.0130
13047SOL     OW39318   6.979   3.395   5.915 -0.6067 -0.3374 -0.4535
13047SOL    HW139319   6.886   3.428   5.931 -0.4195  0.8970 -1.6398
13047SOL    HW239320   6.985   3.358   5.822  0.0577 -0.5053 -0.3458
13048SOL     OW39321   1.343   7.683   2.550 -0.5465  0.5405 -0.1125
13048SOL    HW139322   1.301   7.773   2.545  1.0044  1.2598 -0.7200
13048SOL    HW239323   1.438   7.688   2.521 -0.5497 -1.3869 -0.6284
13049SOL     OW39324   7.298   6.091   5.182  1.1202  0.3798  0.4787
13049SOL    HW139325   7.279   6.034   5.262  0.7123  0.7509  0.6479
13049SOL    HW239326   7.264   6.045   5.100 -0.9240  1.1986  0.8109
13050SOL     OW39327   6.170   3.772   7.246 -0.0747  0.0065  0.0046
13050SOL    HW139328   6.217   3.689   7.216 -1.5788 -0.6770 -0.5138
13050SOL    HW239329   6.200   3.795   7.339  1.8431  0.0511 -0.5681
13051SOL     OW39330   8.164   4.178   1.246  0.6416 -0.6437 -0.4523
13051SOL    HW139331   8.081   4.123   1.256  0.3095 -0.2273 -0.8758
13051SOL    HW239332   8.208   4.158   1.158  1.0341 -0.9128 -0.2012
13052SOL     OW39333   5.390   8.112   4.866 -0.8754  0.1981 -0.3836
13052SOL    HW139334   5.402   8.144   4.772  0.0467 -0.8879 -0.6598
13052SOL    HW239335   5.293   8.096   4.884 -1.2169  1.7713 -0.6715
13053SOL     OW39336   4.077   7.259   8.813 -0.1012  0.0042 -0.0103
13053SOL    HW139337   4.008   7.208   8.761  0.6376 -0.0338 -0.9924
13053SOL    HW239338   4.083   7.223   8.906 -0.2192 -1.1113 -0.4218
13054SOL     OW39339   4.538   7.356   4.520 -0.1394 -0.0055 -0.3211
13054SOL    HW139340   4.532   7.433   4.457  0.3530  1.1179  0.9289
13054SOL    HW239341   4.626   7.361   4.569 -1.0148 -0.0833  1.3216
13055SOL     OW39342   2.915   4.090   1.430 -0.7239  0.7395  0.1820
13055SOL    HW139343   2.874   3.999   1.423  0.0418  0.4891 -1.5069
13055SOL    HW239344   2.974   4.094   1.511 -1.2362 -0.0450  0.6094
13056SOL     OW39345   2.142   5.141   6.375  0.1356 -0.0948 -0.1945
13056SOL    HW139346   2.078   5.070   6.401  0.1319 -0.0335 -0.0345
13056SOL    HW239347   2.125   5.223   6.430  0.0188  0.0921 -0.5026
13057SOL     OW39348   0.203   5.207   2.723  0.6295 -0.5900  0.3078
13057SOL    HW139349   0.199   5.108   2.712  1.4739 -0.6031  0.0868
13057SOL    HW239350   0.111   5.246   2.710  0.1461 -1.4054  1.1379
13058SOL     OW39351   4.430   4.303   2.052  0.6128 -0.5354 -0.2794
13058SOL    HW139352   4.379   4.225   2.087 -0.2712  0.1356 -0.0284
13058SOL    HW239353   4.525   4.297   2.081  0.3470 -1.0440  0.5083
13059SOL     OW39354   7.298   5.214   5.320  0.5257  0.0723  0.1959
13059SOL    HW139355   7.314   5.236   5.224 -0.2391  1.4258  0.3552
13059SOL    HW239356   7.386   5.208   5.368  0.9209 -0.7936 -0.5996
13060SOL     OW39357   3.164   4.752   2.951 -0.5446  0.6393 -0.7037
13060SOL    HW139358   3.199   4.843   2.931  3.4773 -0.3380  0.9325
13060SOL    HW239359   3.217   4.683   2.901 -1.0718 -0.9543  0.7960
13061SOL     OW39360   1.604   3.586   6.854 -0.0997  0.3583 -0.4733
13061SOL    HW139361   1.569   3.670   6.896  1.6750  1.0510 -0.2692
13061SOL    HW239362   1.558   3.507   6.894 -1.3411  1.1959 -0.1890
13062SOL     OW39363   0.941   1.089   2.356  0.0101  0.1737  0.0298
13062SOL    HW139364   1.011   1.023   2.328 -0.4538  0.5040 -2.0904
13062SOL    HW239365   0.972   1.182   2.335 -0.5815  0.4088  0.1665
13063SOL     OW39366   1.173   1.117   0.352 -0.2177 -0.1381 -0.0790
13063SOL    HW139367   1.176   1.129   0.253 -0.3814 -3.7584 -0.6616
13063SOL    HW239368   1.078   1.126   0.384 -0.1503  1.1205 -0.1911
13064SOL     OW39369   2.562   8.514   7.129  0.7290 -0.3383 -0.6358
13064SOL    HW139370   2.632   8.453   7.168  0.5869  0.1676  0.4570
13064SOL    HW239371   2.490   8.459   7.087  1.7298 -0.8691 -1.7242
13065SOL     OW39372   4.613   8.505   6.628 -0.0535  0.6976  0.9886
13065SOL    HW139373   4.681   8.577   6.637  0.0413  0.5625  1.3635
13065SOL    HW239374   4.658   8.420   6.600 -0.3072  1.0476 -0.5738
13066SOL     OW39375   8.608   8.580   1.767  0.5562  0.1855  0.1853
13066SOL    HW139376   8.519   8.552   1.803 -0.7001  2.6924 -0.7112
13066SOL    HW239377   8.638   8.514   1.698 -0.3303 -0.9756  0.8691
13067SOL     OW39378   2.077   3.144   7.688  1.0387  0.1767  0.5987
13067SOL    HW139379   2.019   3.213   7.644 -1.2590 -0.5985  2.2269
13067SOL    HW239380   2.116   3.182   7.772  2.1059  0.3595  0.0377
13068SOL     OW39381   1.774   3.975   1.405 -0.1005 -0.0120 -0.0104
13068SOL    HW139382   1.830   3.918   1.346  1.0560 -0.1639  1.1989
13068SOL    HW239383   1.716   4.034   1.349  0.7875 -0.3094 -1.2739
13069SOL     OW39384   5.983   6.242   8.364  0.1148 -0.1012 -0.9621
13069SOL    HW139385   6.016   6.264   8.272  0.7984 -1.9178 -1.1902
13069SOL    HW239386   6.024   6.305   8.430  3.3436 -1.5542 -1.3619
13070SOL     OW39387   2.886   2.721   2.383 -0.2840  0.0524  0.1996
13070SOL    HW139388   2.847   2.755   2.297  0.0562 -0.8545 -0.3293
13070SOL    HW239389   2.881   2.793   2.452  0.3445  1.1409 -0.8490
13071SOL     OW39390   7.893   8.818   0.357 -0.0686 -0.2611 -0.1081
13071SOL    HW139391   7.921   8.806   0.262 -1.6076  0.7691 -0.7344
13071SOL    HW239392   7.941   8.752   0.415 -1.2350 -2.9803 -2.0041
13072SOL     OW39393   0.060   1.693   6.766  0.7196  0.5921  0.3186
13072SOL    HW139394   0.151   1.735   6.763  0.7740  0.6271  1.6768
13072SOL    HW239395   0.049   1.644   6.853  0.2082 -1.2022 -0.7038
13073SOL     OW39396   2.845   5.400   3.216 -0.3331 -0.0862  0.2970
13073SOL    HW139397   2.919   5.352   3.262 -1.8777 -2.6339  0.3017
13073SOL    HW239398   2.826   5.486   3.264  2.5988  0.6988  0.2222
13074SOL     OW39399   3.332   8.607   6.202 -0.8105 -0.1976 -0.2667
13074SOL    HW139400   3.321   8.509   6.219 -0.9532 -0.1736 -0.2215
13074SOL    HW239401   3.395   8.645   6.270 -0.8876 -0.2251 -0.1797
13075SOL     OW39402   6.271   1.895   1.908  0.0710  0.3572 -0.2588
13075SOL    HW139403   6.307   1.987   1.922 -0.1938  0.4735 -0.3202
13075SOL    HW239404   6.249   1.853   1.996 -1.2130  0.9309 -0.2726
13076SOL     OW39405   3.404   0.143   7.474  0.1816 -0.6594  0.2615
13076SOL    HW139406   3.385   0.205   7.550  0.1026  1.6334 -1.4844
13076SOL    HW239407   3.322   0.135   7.417  0.7629 -0.8193 -0.5711
13077SOL     OW39408   7.335   7.659   2.876 -0.6744  1.1617 -0.1348
13077SOL    HW139409   7.276   7.640   2.955 -1.8493  1.3559 -0.9347
13077SOL    HW239410   7.431   7.652   2.903 -1.0437 -0.6223  0.8633
13078SOL     OW39411   3.368   6.711   3.730  0.4210 -0.1099  0.0168
13078SOL    HW139412   3.383   6.613   3.744 -0.1181 -0.2779 -0.5254
13078SOL    HW239413   3.372   6.732   3.633 -2.0013 -0.0541 -0.1314
13079SOL     OW39414   8.539   1.510   8.312 -0.3062  0.6744 -0.1792
13079SOL    HW139415   8.599   1.589   8.323  1.5804 -0.6405 -0.5142
13079SOL    HW239416   8.583   1.444   8.251 -2.1750 -0.3011 -0.5185
13080SOL     OW39417   0.876   8.708   2.236 -0.1482  0.3120  0.4514
13080SOL    HW139418   0.841   8.629   2.186 -0.1398  1.4798 -1.4970
13080SOL    HW239419   0.802   8.752   2.287 -0.4799 -0.0341  0.2694
13081SOL     OW39420   0.157   2.271   4.875  0.0607  0.2778  0.2806
13081SOL    HW139421   0.091   2.346   4.871 -1.0160 -0.6544 -0.0060
13081SOL    HW239422   0.181   2.243   4.782  1.0946  0.7879  0.3789
13082SOL     OW39423   8.673   0.635   5.218 -0.2897  0.0730 -0.6681
13082SOL    HW139424   8.766   0.664   5.201 -0.6055  1.0819 -0.7171
13082SOL    HW239425   8.666   0.536   5.205  1.3004 -0.4100  1.6244
13083SOL     OW39426   2.310   7.359   7.425 -0.4782  0.4794  0.9878
13083SOL    HW139427   2.270   7.380   7.336 -0.0268 -2.3538  0.0369
13083SOL    HW239428   2.245   7.304   7.479 -0.4177  1.4623  2.1179
13084SOL     OW39429   5.577   5.768   2.740  0.0801 -0.0606  0.4284
13084SOL    HW139430   5.655   5.827   2.720  0.4982 -0.2034  1.6015
13084SOL    HW239431   5.496   5.824   2.757  0.6575  0.2344  2.3515
13085SOL     OW39432   8.337   4.217   7.465 -0.2433  0.9799  0.1647
13085SOL    HW139433   8.267   4.277   7.426  0.5634  1.4121 -0.6497
13085SOL    HW239434   8.373   4.258   7.549 -1.5495  0.3402  1.0838
13086SOL     OW39435   8.165   8.140   7.744  0.3530  0.0561  0.3853
13086SOL    HW139436   8.204   8.223   7.704 -0.2311 -0.7677 -2.0581
13086SOL    HW239437   8.141   8.076   7.671  0.6999 -2.2561  2.1973
13087SOL     OW39438   8.227   6.033   5.577 -0.0754  0.0325  0.0414
13087SOL    HW139439   8.205   6.130   5.592 -2.3898 -0.0244 -2.2238
13087SOL    HW239440   8.194   5.978   5.653 -1.7245  0.7321 -0.1343
13088SOL     OW39441   3.267   7.199   5.275  0.0052  0.2478 -0.8670
13088SOL    HW139442   3.327   7.131   5.233  0.0177 -0.7128  0.6549
13088SOL    HW239443   3.172   7.173   5.261 -0.0059 -1.1734  1.2706
13089SOL     OW39444   5.206   1.483   6.650  0.0508  0.2417  0.2635
13089SOL    HW139445   5.294   1.504   6.692 -0.5116 -1.2543  2.3618
13089SOL    HW239446   5.201   1.525   6.560  2.3873  1.4213  0.6145
13090SOL     OW39447   6.688   2.004   8.690 -0.2992 -1.0964 -0.0681
13090SOL    HW139448   6.719   1.925   8.637 -1.0217 -1.1308 -0.4501
13090SOL    HW239449   6.593   1.992   8.716 -0.4733 -0.2821 -0.2819
13091SOL     OW39450   4.177   5.637   7.464 -0.1945  0.2436 -0.1713
13091SOL    HW139451   4.182   5.553   7.518  1.6937  0.1684 -0.3791
13091SOL    HW239452   4.185   5.717   7.524 -0.3033  0.2219 -0.1290
13092SOL     OW39453   1.378   5.386   7.326  0.7075 -0.3821 -0.1110
13092SOL    HW139454   1.326   5.441   7.261  1.5514 -0.2473 -0.6868
13092SOL    HW239455   1.357   5.289   7.312  1.9025 -0.4712 -1.5517
13093SOL     OW39456   4.889   7.160   8.763 -0.0317 -0.2668 -0.1036
13093SOL    HW139457   4.798   7.126   8.785  0.4043 -0.9633  0.7088
13093SOL    HW239458   4.885   7.258   8.745 -1.5138 -0.8328 -3.5875
13094SOL     OW39459   6.909   7.776   4.477 -0.1225 -0.5624 -0.5383
13094SOL    HW139460   6.987   7.733   4.432  0.2010 -0.4968 -0.0499
13094SOL    HW239461   6.942   7.850   4.536 -0.4538 -1.2030  0.4811
13095SOL     OW39462   0.626   5.199   4.887  0.2493  0.4669  0.3768
13095SOL    HW139463   0.669   5.205   4.797 -0.6545  0.6451 -0.0614
13095SOL    HW239464   0.685   5.148   4.950  1.6390  1.7191  0.1478
13096SOL     OW39465   7.310   2.887   3.599  0.1999 -0.3272 -0.0226
13096SOL    HW139466   7.346   2.941   3.676 -0.4629 -0.1310  0.1580
13096SOL    HW239467   7.358   2.799   3.595 -0.2866 -0.6575  1.0911
13097SOL     OW39468   2.296   6.200   6.388  0.0801 -0.3478  0.3583
13097SOL    HW139469   2.224   6.266   6.365  1.6657  0.8137 -1.6346
13097SOL    HW239470   2.324   6.212   6.483 -0.0510  1.4975  0.1987
13098SOL     OW39471   5.513   2.265   5.904  0.4933 -0.0322  0.2206
13098SOL    HW139472   5.468   2.334   5.960  1.6393  0.4690  0.5637
13098SOL    HW239473   5.506   2.291   5.808  0.2490  0.1520  0.2869
13099SOL     OW39474   4.528   7.681   2.252  0.0872 -0.2368 -0.2132
13099SOL    HW139475   4.569   7.607   2.200  0.8327  0.5904 -0.8409
13099SOL    HW239476   4.450   7.717   2.202  0.7946  0.5480 -0.7895
13100SOL     OW39477   5.699   7.169   5.125  0.2163 -0.0649  0.0306
13100SOL    HW139478   5.713   7.199   5.031  1.1780 -1.6695 -0.3788
13100SOL    HW239479   5.618   7.215   5.163 -0.1715  0.6356 -1.5483
13101SOL     OW39480   0.626   1.206   2.982  0.2834 -0.0729  0.3351
13101SOL    HW139481   0.576   1.139   3.038  0.2436 -0.5218 -0.2317
13101SOL    HW239482   0.718   1.216   3.018  0.4581 -0.8271  0.1204
13102SOL     OW39483   6.260   1.054   2.656 -0.5021  0.6089 -0.0064
13102SOL    HW139484   6.307   1.080   2.741 -0.0965 -0.8331  0.2270
13102SOL    HW239485   6.162   1.048   2.673 -0.5857  1.7455 -0.0160
13103SOL     OW39486   5.040   7.689   2.506  0.3202  0.3492  0.2613
13103SOL    HW139487   4.998   7.654   2.423 -0.3358 -0.6269  0.9813
13103SOL    HW239488   5.123   7.740   2.483 -0.3015  0.7982 -1.0394
13104SOL     OW39489   7.845   5.076   8.227  0.0221 -0.3892  0.0151
13104SOL    HW139490   7.822   4.992   8.178 -0.8400  0.4260 -1.0209
13104SOL    HW239491   7.880   5.144   8.163  2.7065 -0.5959  1.1306
13105SOL     OW39492   8.799   2.654   7.833 -0.0879 -0.0137  0.3333
13105SOL    HW139493   8.772   2.692   7.921  1.5308  0.1344  0.7905
13105SOL    HW239494   8.871   2.585   7.846  2.0972  1.8711 -1.0212
13106SOL     OW39495   4.614   2.797   5.516 -0.4501  0.0860  0.1136
13106SOL    HW139496   4.710   2.792   5.542 -0.1428 -1.3070 -1.1300
13106SOL    HW239497   4.605   2.785   5.417 -1.8376  1.3106  0.0497
13107SOL     OW39498   0.922   7.086   7.210  0.5960  0.0153 -0.0461
13107SOL    HW139499   0.919   7.032   7.125  0.6067  2.3335 -1.6282
13107SOL    HW239500   0.830   7.098   7.245  0.4132  0.3108 -0.6102
13108SOL     OW39501   1.536   0.160   7.378  0.0063  0.0334  0.6085
13108SOL    HW139502   1.553   0.091   7.307  1.0098 -0.5947  1.4403
13108SOL    HW239503   1.473   0.122   7.446  0.7456 -0.1546  1.1937
13109SOL     OW39504   4.942   5.916   2.656 -0.3720 -0.3439  0.2042
13109SOL    HW139505   4.916   5.993   2.715 -0.1213  0.2013 -0.3727
13109SOL    HW239506   4.885   5.916   2.574  1.5049  1.0431 -1.2191
13110SOL     OW39507   0.671   1.336   7.772 -0.1291 -0.6100  0.3148
13110SOL    HW139508   0.692   1.270   7.699 -1.2158 -0.4551 -0.1455
13110SOL    HW239509   0.717   1.422   7.752  1.3502 -1.1952  0.9478
13111SOL     OW39510   3.791   4.593   0.304 -0.1064 -0.2152  0.3126
13111SOL    HW139511   3.695   4.602   0.276 -0.2388 -0.5635  0.6345
13111SOL    HW239512   3.800   4.626   0.399  0.2522  0.5675  0.0160
13112SOL     OW39513   7.357   8.000   3.111 -0.0050  1.0833 -0.0566
13112SOL    HW139514   7.307   8.040   3.034  1.9758  1.6088 -1.1270
13112SOL    HW239515   7.427   8.064   3.142  1.4589 -0.4679 -0.0364
13113SOL     OW39516   4.536   7.182   3.538 -0.3330 -0.0087 -0.0618
13113SOL    HW139517   4.591   7.230   3.470  2.0397  1.2152  2.5477
13113SOL    HW239518   4.558   7.084   3.535  0.0876  0.0978 -0.7147
13114SOL     OW39519   3.757   1.152   4.253  0.2176 -0.1598  0.0753
13114SOL    HW139520   3.819   1.200   4.315  0.5965  1.2777 -1.3285
13114SOL    HW239521   3.663   1.162   4.285  0.4432  0.2298  0.6233
13115SOL     OW39522   0.198   1.717   5.546 -0.8810 -0.2577  0.3675
13115SOL    HW139523   0.246   1.792   5.592 -1.0947 -0.5137  1.0231
13115SOL    HW239524   0.148   1.753   5.467  0.4034  0.0057 -0.3475
13116SOL     OW39525   7.151   2.065   2.960  0.1932  0.2609 -0.2697
13116SOL    HW139526   7.232   2.122   2.943  1.1112 -0.5244  1.3128
13116SOL    HW239527   7.068   2.117   2.936  1.1068  1.3707 -1.1374
13117SOL     OW39528   0.952   5.174   0.842  0.1907 -0.0504  0.3186
13117SOL    HW139529   0.975   5.254   0.898  0.8264  1.9575 -2.5571
13117SOL    HW239530   1.036   5.128   0.814  0.0138  0.1942 -0.6238
13118SOL     OW39531   7.745   0.707   1.078 -0.3236 -0.0543 -0.3909
13118SOL    HW139532   7.664   0.729   1.023 -0.5954 -0.3486 -0.1070
13118SOL    HW239533   7.756   0.608   1.082  1.7938 -0.0342 -3.0073
13119SOL     OW39534   6.951   6.866   1.115  0.0766 -0.6244 -0.1671
13119SOL    HW139535   7.011   6.805   1.167 -1.0456 -1.6046  0.0078
13119SOL    HW239536   6.949   6.838   1.019  0.1753 -0.3635 -0.2470
13120SOL     OW39537   5.160   1.638   2.590  0.1503 -0.5185  0.3542
13120SOL    HW139538   5.246   1.686   2.573 -0.6769  0.8717 -0.0619
13120SOL    HW239539   5.084   1.697   2.566 -0.9390 -1.6486  0.9217
13121SOL     OW39540   0.714   2.622   2.750  0.1057 -0.1199  0.6392
13121SOL    HW139541   0.802   2.617   2.705 -1.0349  0.5138 -1.8237
13121SOL    HW239542   0.727   2.626   2.849  2.8270  0.6318  0.3215
13122SOL     OW39543   6.735   4.720   7.086  0.2953 -0.0621  0.4070
13122SOL    HW139544   6.759   4.794   7.148  1.0791 -0.2840  0.3722
13122SOL    HW239545   6.768   4.741   6.994 -1.7873  0.7764 -0.2317
13123SOL     OW39546   7.267   7.651   6.405  0.0830  0.0037 -0.4818
13123SOL    HW139547   7.291   7.726   6.467 -0.8152 -0.5212  0.5418
13123SOL    HW239548   7.350   7.604   6.376  0.4908 -0.5907  1.4446
13124SOL     OW39549   2.999   4.750   7.118 -0.1424 -0.1393 -0.1970
13124SOL    HW139550   3.066   4.732   7.046 -1.4654 -0.5706 -1.3607
13124SOL    HW239551   3.017   4.689   7.195  0.5582 -0.5266 -0.6530
13125SOL     OW39552   7.803   3.786   3.510  0.8696 -0.2289  0.0334
13125SOL    HW139553   7.837   3.753   3.422  1.5904  0.8575 -0.1092
13125SOL    HW239554   7.736   3.859   3.494  1.4522  0.3964  0.3748
13126SOL     OW39555   8.052   0.131   2.248  0.1822 -0.4398 -0.3595
13126SOL    HW139556   8.148   0.160   2.249  0.4306 -1.2085 -1.0525
13126SOL    HW239557   8.004   0.178   2.174 -0.6684  1.9988  1.6196
13127SOL     OW39558   3.461   6.479   5.735  0.0963 -0.3301 -0.2342
13127SOL    HW139559   3.417   6.489   5.824  1.0881 -1.4138  0.4103
13127SOL    HW239560   3.456   6.566   5.686  0.5100  0.6350  1.3462
13128SOL     OW39561   3.393   4.397   2.142 -0.1366 -0.4161  0.0307
13128SOL    HW139562   3.393   4.342   2.225  1.5548  0.4087  0.6200
13128SOL    HW239563   3.455   4.356   2.075  0.8688  0.5538  0.3443
13129SOL     OW39564   0.459   3.135   8.412  0.5048 -0.0536 -0.2504
13129SOL    HW139565   0.540   3.083   8.384 -0.7349 -2.6817  0.6930
13129SOL    HW239566   0.480   3.187   8.495  0.9163 -1.9218  0.8960
13130SOL     OW39567   4.013   6.405   7.960 -0.1712 -0.6055  0.3895
13130SOL    HW139568   4.043   6.499   7.944  0.2616 -0.6203  1.0723
13130SOL    HW239569   4.091   6.350   7.989 -0.6427 -0.9111  1.0913
13131SOL     OW39570   1.048   2.718   1.618 -0.5807  0.5276 -0.0174
13131SOL    HW139571   1.004   2.758   1.537  0.9462 -0.1370 -1.2330
13131SOL    HW239572   1.033   2.619   1.618 -0.8927  0.5749  0.7283
13132SOL     OW39573   8.432   3.554   8.166  0.0673 -0.5199  0.0524
13132SOL    HW139574   8.384   3.635   8.202  0.2886 -0.8414  1.0893
13132SOL    HW239575   8.379   3.516   8.091 -0.5228  0.0369  0.1707
13133SOL     OW39576   8.591   7.530   8.606 -0.0572 -0.3676  0.6332
13133SOL    HW139577   8.670   7.532   8.544 -0.1014 -4.3706  0.2363
13133SOL    HW239578   8.526   7.601   8.578  1.7805  0.7192 -1.2270
13134SOL     OW39579   4.203   5.796   5.899  0.1903 -0.4624  0.3077
13134SOL    HW139580   4.289   5.846   5.906 -1.4173  2.5960 -0.1079
13134SOL    HW239581   4.154   5.827   5.817 -1.3831 -2.0133  0.6180
13135SOL     OW39582   4.837   0.095   7.917  0.1018 -0.2776 -0.1773
13135SOL    HW139583   4.795   0.006   7.902 -1.2871  0.1792  0.8424
13135SOL    HW239584   4.776   0.167   7.886  1.9842  0.3725 -2.8203
13136SOL     OW39585   8.837   2.840   7.643 -0.2379  0.6961 -0.4955
13136SOL    HW139586   8.811   2.771   7.711 -0.4530  1.3709  0.1194
13136SOL    HW239587   8.792   2.927   7.664  1.1480  1.4267 -0.4090
13137SOL     OW39588   2.388   1.291   3.438  0.3029  0.0491 -0.4925
13137SOL    HW139589   2.474   1.294   3.386  1.2477 -2.6569  0.7581
13137SOL    HW239590   2.315   1.257   3.379  0.7288 -0.3556 -0.7942
13138SOL     OW39591   2.075   1.490   3.955  0.1993 -0.1115 -0.4365
13138SOL    HW139592   2.117   1.405   3.987 -0.3289  0.3796  1.6940
13138SOL    HW239593   2.122   1.520   3.872 -0.7679 -3.3895 -2.3363
13139SOL     OW39594   3.063   1.769   8.078  0.5419  0.0877 -0.7803
13139SOL    HW139595   3.160   1.773   8.053  0.3053 -3.1015 -2.7076
13139SOL    HW239596   3.007   1.781   7.996 -0.4977 -3.1025 -0.6434
13140SOL     OW39597   5.944   1.609   5.430  0.2220 -0.1110  0.0061
13140SOL    HW139598   5.991   1.697   5.430 -0.0836  0.0694  1.0720
13140SOL    HW239599   5.845   1.624   5.428  0.1737 -0.4658 -1.0438
13141SOL     OW39600   7.620   1.772   7.509 -0.2474  0.0395  0.3005
13141SOL    HW139601   7.578   1.725   7.432 -0.1511  2.3376 -1.2888
13141SOL    HW239602   7.554   1.783   7.583 -2.4212  2.9765 -1.8619
13142SOL     OW39603   3.476   0.521   3.104 -0.1870  0.3010 -0.1685
13142SOL    HW139604   3.473   0.426   3.072 -2.2604  0.9638 -2.2362
13142SOL    HW239605   3.515   0.579   3.032  1.1612  1.0513  1.1107
13143SOL     OW39606   2.200   5.304   5.764  0.4650 -0.0175 -0.9781
13143SOL    HW139607   2.188   5.206   5.772  1.1935 -0.1142 -0.9484
13143SOL    HW239608   2.295   5.327   5.784  0.4662  0.6166 -1.6701
13144SOL     OW39609   2.793   8.517   2.809  0.5496 -0.2258  0.1687
13144SOL    HW139610   2.746   8.537   2.723 -0.1975 -1.6954  0.1847
13144SOL    HW239611   2.891   8.507   2.793  0.4074 -0.5203 -0.5220
13145SOL     OW39612   1.328   2.816   3.060 -0.8182  0.3925 -0.2148
13145SOL    HW139613   1.362   2.850   2.973 -1.1446  0.1977 -0.4229
13145SOL    HW239614   1.228   2.809   3.056 -0.7968 -0.0741  0.0065
13146SOL     OW39615   5.766   1.502   4.034 -0.0927 -0.0011  0.3474
13146SOL    HW139616   5.863   1.507   4.011 -0.0542 -2.1103 -0.1434
13146SOL    HW239617   5.723   1.427   3.982 -1.6946  0.0674  1.5045
13147SOL     OW39618   3.346   4.611   7.311 -0.4307 -0.0062 -0.1675
13147SOL    HW139619   3.402   4.578   7.387 -2.5665  1.1764  2.0745
13147SOL    HW239620   3.367   4.708   7.295  0.9206 -0.5627 -2.0407
13148SOL     OW39621   8.488   0.810   4.539 -0.3321 -0.2201  0.2739
13148SOL    HW139622   8.472   0.755   4.621 -0.6423 -1.0330 -0.3128
13148SOL    HW239623   8.483   0.751   4.458  1.8951  0.1833 -0.2241
13149SOL     OW39624   3.494   2.358   4.827  0.2936 -0.4924 -0.4741
13149SOL    HW139625   3.460   2.328   4.917  2.0788  0.4903  0.5678
13149SOL    HW239626   3.537   2.280   4.781  1.1417 -0.5455  0.3873
13150SOL     OW39627   2.644   4.087   1.156  0.1751 -0.0913  0.3455
13150SOL    HW139628   2.685   4.160   1.211  1.3975 -0.6516  0.2275
13150SOL    HW239629   2.606   4.017   1.217 -2.1718  1.2054  0.4779
13151SOL     OW39630   0.702   3.869   4.637  0.0614  0.1592 -0.1466
13151SOL    HW139631   0.703   3.937   4.565  1.8914 -0.2525 -0.5623
13151SOL    HW239632   0.612   3.867   4.680 -0.7378  1.1606 -1.6874
13152SOL     OW39633   1.057   1.294   3.491 -0.5078  0.5743 -0.2581
13152SOL    HW139634   0.967   1.317   3.454 -1.0418  1.6491  1.5919
13152SOL    HW239635   1.117   1.373   3.481 -0.3685  0.5371  0.2732
13153SOL     OW39636   5.891   2.820   5.962 -0.3778 -0.3614  0.2783
13153SOL    HW139637   5.820   2.888   5.979  0.2673 -0.0746  1.9641
13153SOL    HW239638   5.974   2.866   5.930 -0.6718 -0.6171 -0.9005
13154SOL     OW39639   4.892   5.691   7.995 -0.5069 -0.4274 -0.0703
13154SOL    HW139640   4.870   5.788   8.001 -1.7471 -0.7699  2.1257
13154SOL    HW239641   4.823   5.645   7.939 -2.6732 -0.6467  2.5123
13155SOL     OW39642   8.691   6.946   8.756 -0.0437  0.1395 -0.0342
13155SOL    HW139643   8.726   7.030   8.713  0.2622 -0.5181 -1.1110
13155SOL    HW239644   8.744   6.868   8.724 -0.1002 -0.4430  1.2343
13156SOL     OW39645   4.196   2.208   5.082  0.1989 -0.2154  0.3666
13156SOL    HW139646   4.245   2.196   5.168 -0.7393  1.2842  1.1600
13156SOL    HW239647   4.254   2.182   5.006  1.8428  0.4850  1.3332
13157SOL     OW39648   0.469   4.290   5.589 -0.2621  0.7559  0.6018
13157SOL    HW139649   0.537   4.349   5.632 -0.7790  1.6788  0.1739
13157SOL    HW239650   0.505   4.196   5.585  1.0190  1.2331  0.2996
13158SOL     OW39651   5.645   3.586   0.520 -0.1871  0.1246 -0.5460
13158SOL    HW139652   5.722   3.551   0.574 -0.5649  0.7376  0.4213
13158SOL    HW239653   5.680   3.631   0.438  0.3254 -2.1094 -1.6325
13159SOL     OW39654   5.823   6.267   5.987 -0.3853  0.6058  0.0904
13159SOL    HW139655   5.757   6.267   5.912 -1.7595  0.8596  1.2717
13159SOL    HW239656   5.863   6.358   5.995  0.7925  0.2426 -1.1643
13160SOL     OW39657   2.780   8.174   6.467 -0.1738 -0.0362 -1.0242
13160SOL    HW139658   2.797   8.255   6.410  2.3864  0.5175  0.3349
13160SOL    HW239659   2.856   8.110   6.457 -1.4058 -1.5817 -0.8744
13161SOL     OW39660   1.922   3.895   5.253 -0.2572 -0.0318 -0.1299
13161SOL    HW139661   1.911   3.858   5.161  0.1808  0.5827 -0.4403
13161SOL    HW239662   1.832   3.914   5.293 -0.4313  1.1186 -1.0305
13162SOL     OW39663   7.953   5.475   2.035  0.5048 -0.2416  0.0352
13162SOL    HW139664   7.910   5.548   2.088  0.3212  0.2611 -0.7999
13162SOL    HW239665   7.891   5.397   2.029  0.7103 -0.4902  0.9512
13163SOL     OW39666   0.177   8.404   8.567 -0.0366  0.3394  0.1712
13163SOL    HW139667   0.274   8.379   8.558 -0.4549 -0.8442 -1.5504
13163SOL    HW239668   0.139   8.360   8.649  0.6381  0.0243  0.3226
13164SOL     OW39669   5.065   3.424   1.078 -0.2012 -0.2290  0.3177
13164SOL    HW139670   4.990   3.478   1.116  0.8406 -0.1904  2.5508
13164SOL    HW239671   5.146   3.482   1.070  0.3242 -0.9052  0.6175
13165SOL     OW39672   2.465   5.358   5.819 -0.2383 -0.1344 -0.2035
13165SOL    HW139673   2.467   5.270   5.867 -1.2442  0.0177  0.1521
13165SOL    HW239674   2.496   5.430   5.881 -0.4846 -0.0904 -0.1290
13166SOL     OW39675   8.264   6.936   7.057  0.7232 -0.2451 -0.7611
13166SOL    HW139676   8.259   6.999   6.980 -0.1682 -0.8984 -1.2525
13166SOL    HW239677   8.359   6.926   7.086  1.0500  0.1018 -1.6887
13167SOL     OW39678   6.292   1.897   4.727  0.0041  0.3800 -0.4134
13167SOL    HW139679   6.228   1.830   4.763  0.9931  0.3490  1.3927
13167SOL    HW239680   6.267   1.988   4.760  1.3896  0.2468  1.1079
13168SOL     OW39681   0.120   4.366   3.673  0.4209  0.3221  0.0639
13168SOL    HW139682   0.128   4.402   3.581 -1.0534  0.1187 -0.1720
13168SOL    HW239683   0.153   4.271   3.675 -2.1834 -0.7036 -0.9867
13169SOL     OW39684   0.391   1.432   8.059  0.6534 -0.0150  0.2445
13169SOL    HW139685   0.399   1.479   8.147  0.2518 -1.7755  1.2755
13169SOL    HW239686   0.460   1.360   8.054 -0.4273 -1.0430 -0.1352
13170SOL     OW39687   1.607   4.791   0.749  0.6752 -0.1778 -0.5249
13170SOL    HW139688   1.599   4.748   0.659  3.1974  0.1757 -0.9990
13170SOL    HW239689   1.666   4.735   0.807 -2.1612 -1.2365  1.5547
13171SOL     OW39690   0.662   6.116   6.139  0.5194  0.5982  0.2767
13171SOL    HW139691   0.618   6.138   6.052  0.8579 -2.8213 -0.9010
13171SOL    HW239692   0.599   6.138   6.214 -1.8691 -0.9032 -1.1451
13172SOL     OW39693   7.637   5.457   7.037  0.1297  0.2538  0.2273
13172SOL    HW139694   7.609   5.366   7.066 -1.7527  0.4660 -0.7469
13172SOL    HW239695   7.678   5.506   7.114 -0.8048 -0.6559  1.3437
13173SOL     OW39696   3.909   6.469   2.267  0.0975  0.0721  0.2589
13173SOL    HW139697   3.922   6.542   2.334  2.1954 -0.5366  0.5993
13173SOL    HW239698   3.907   6.381   2.315  3.3348 -0.5302 -0.4802
13174SOL     OW39699   0.696   3.035   0.243  0.2896  0.8507  0.0936
13174SOL    HW139700   0.701   3.106   0.173 -0.8432  1.4862  0.6347
13174SOL    HW239701   0.615   2.979   0.229  1.1238 -0.3199 -0.2744
13175SOL     OW39702   1.484   1.408   4.521 -0.3554 -0.3148  0.3367
13175SOL    HW139703   1.400   1.355   4.512 -0.4764 -0.1096  0.2377
13175SOL    HW239704   1.552   1.356   4.572  0.1191 -1.2644 -1.2084
13176SOL     OW39705   1.733   4.174   8.606  0.1314 -0.5398 -0.4029
13176SOL    HW139706   1.790   4.116   8.665 -1.1336 -1.2979  0.1273
13176SOL    HW239707   1.755   4.270   8.622 -0.5823 -0.6812  1.7955
13177SOL     OW39708   4.829   3.618   1.712 -0.3598  0.2349  0.2913
13177SOL    HW139709   4.811   3.696   1.773  0.6711  1.2030 -0.5915
13177SOL    HW239710   4.759   3.614   1.642 -1.2009 -0.5040  1.1492
13178SOL     OW39711   1.575   0.826   7.563 -0.4116  0.2677 -0.3592
13178SOL    HW139712   1.561   0.891   7.488  1.9968 -0.1323 -1.2427
13178SOL    HW239713   1.636   0.753   7.533 -0.8578 -0.9141  1.4619
13179SOL     OW39714   5.744   2.260   0.552  0.3983  0.0265  0.3192
13179SOL    HW139715   5.705   2.349   0.527 -0.6537 -0.3390  0.6294
13179SOL    HW239716   5.735   2.246   0.650  1.6859  0.0930  0.4693
13180SOL     OW39717   3.211   8.668   5.456  0.4752  0.2275  0.1230
13180SOL    HW139718   3.256   8.710   5.377 -0.9705  3.4302  0.8089
13180SOL    HW239719   3.281   8.634   5.519  1.6911 -0.8608 -1.7134
13181SOL     OW39720   2.069   1.761   4.753  0.1166 -0.1123 -0.4032
13181SOL    HW139721   2.069   1.856   4.722  1.3122 -0.3073 -1.0423
13181SOL    HW239722   2.089   1.758   4.850  1.5639  0.2230 -0.6717
13182SOL     OW39723   6.813   3.230   8.053  0.2441 -0.8523  0.7727
13182SOL    HW139724   6.800   3.171   7.973  0.9536  1.7691 -1.4349
13182SOL    HW239725   6.754   3.198   8.128 -1.5928 -2.5710 -1.2563
13183SOL     OW39726   2.842   1.472   0.698 -0.4146  0.1152 -0.3827
13183SOL    HW139727   2.862   1.512   0.787  1.4350  2.0793 -1.5871
13183SOL    HW239728   2.751   1.500   0.669 -0.4071  0.7853  0.2054
13184SOL     OW39729   7.672   6.705   7.038 -0.4741  0.1274  0.4197
13184SOL    HW139730   7.747   6.672   7.095  0.3472 -0.5788 -1.0072
13184SOL    HW239731   7.708   6.770   6.971 -0.9434 -0.9667 -0.9330
13185SOL     OW39732   8.701   3.625   8.062 -0.2903  0.2236  0.0719
13185SOL    HW139733   8.697   3.678   7.978  0.0693 -1.3530 -0.9892
13185SOL    HW239734   8.608   3.606   8.094 -0.5143 -0.6884 -1.0179
13186SOL     OW39735   5.039   6.032   1.371  0.2402  0.6485 -0.3002
13186SOL    HW139736   5.076   6.124   1.363  0.6428  0.5615  0.4637
13186SOL    HW239737   4.960   6.022   1.311 -0.1553  1.6711  0.0343
13187SOL     OW39738   6.041   1.888   5.755 -0.1845  0.1711  0.0601
13187SOL    HW139739   6.037   1.910   5.853 -0.9704  0.7998 -0.0967
13187SOL    HW239740   6.102   1.953   5.709  2.8500 -2.0866  0.5902
13188SOL     OW39741   8.841   0.602   7.317  0.3306  0.0498  0.7212
13188SOL    HW139742   8.844   0.545   7.399  1.0004 -1.2644 -0.1749
13188SOL    HW239743   8.850   0.544   7.236 -0.9406  1.2378 -0.3278
13189SOL     OW39744   5.680   5.583   5.233 -0.5111 -0.3834  0.0327
13189SOL    HW139745   5.591   5.622   5.257  0.0414  0.3582  0.9108
13189SOL    HW239746   5.733   5.649   5.179 -0.5345 -0.8693 -0.5944
13190SOL     OW39747   2.388   2.670   1.421 -0.0637 -0.0810  0.2613
13190SOL    HW139748   2.352   2.654   1.329 -0.4651  0.1689  0.3714
13190SOL    HW239749   2.353   2.600   1.483  0.5407 -0.4985  0.1467
13191SOL     OW39750   6.904   5.681   7.819 -0.2010  0.1226  0.7063
13191SOL    HW139751   6.840   5.692   7.743  0.4378  2.1552  0.4165
13191SOL    HW239752   6.997   5.673   7.783 -0.0721 -0.8815  1.2165
13192SOL     OW39753   7.285   8.321   1.714 -0.1919 -0.1539 -0.4053
13192SOL    HW139754   7.185   8.320   1.708 -0.2322  0.0349  0.1913
13192SOL    HW239755   7.322   8.356   1.628 -0.6995  1.3176 -0.0481
13193SOL     OW39756   2.101   8.065   5.632 -0.0854 -0.2912  0.2821
13193SOL    HW139757   2.019   8.113   5.604  1.2179  3.3305  2.0809
13193SOL    HW239758   2.082   8.013   5.716 -0.8469 -0.6272 -0.0917
13194SOL     OW39759   6.957   0.758   4.187 -0.5440 -0.0825  0.1672
13194SOL    HW139760   6.957   0.702   4.104 -2.1057 -1.1532  0.8341
13194SOL    HW239761   6.974   0.853   4.164  2.4733 -0.7947 -0.9939
13195SOL     OW39762   4.720   8.320   8.631 -0.2056 -0.2604  0.4404
13195SOL    HW139763   4.708   8.412   8.668  0.4684 -0.0418  0.1315
13195SOL    HW239764   4.706   8.322   8.532 -2.1072 -0.8632  0.6527
13196SOL     OW39765   7.407   7.253   4.489 -0.5278 -0.1534  0.3972
13196SOL    HW139766   7.454   7.231   4.403 -0.6629  1.9264 -0.2758
13196SOL    HW239767   7.309   7.233   4.479 -0.8700  1.7847 -0.6607
13197SOL     OW39768   3.589   8.839   1.364  0.2406  0.3579  0.5977
13197SOL    HW139769   3.521   8.911   1.350 -0.2839 -0.1391  0.5810
13197SOL    HW239770   3.633   8.817   1.277 -0.0176  0.2442  0.4960
13198SOL     OW39771   2.009   5.629   5.894  0.2918  0.2682 -0.2982
13198SOL    HW139772   1.974   5.623   5.800 -0.5603 -0.9874  0.0676
13198SOL    HW239773   1.954   5.694   5.945 -0.0430  0.0254 -0.3444
13199SOL     OW39774   6.835   4.426   3.520 -0.4266  0.3769 -0.1323
13199SOL    HW139775   6.864   4.506   3.468 -0.3047  1.5301  1.6026
13199SOL    HW239776   6.911   4.362   3.526 -0.0486  0.7972 -0.3406
13200SOL     OW39777   7.465   1.820   5.807  0.1874 -0.1168 -0.5059
13200SOL    HW139778   7.537   1.889   5.806 -0.2848  0.5091  2.1108
13200SOL    HW239779   7.437   1.800   5.713  2.6678  0.7353 -1.5040
13201SOL     OW39780   2.390   6.358   7.552 -0.0230 -0.5622  0.0596
13201SOL    HW139781   2.359   6.317   7.466  1.3721  0.5080 -1.0106
13201SOL    HW239782   2.475   6.314   7.581  1.6034  1.5102 -1.2028
13202SOL     OW39783   8.597   7.375   3.777 -0.0945  0.4790 -0.4764
13202SOL    HW139784   8.530   7.449   3.774 -0.4461  0.1749 -0.2072
13202SOL    HW239785   8.552   7.288   3.759  0.3098  0.3207 -0.7547
13203SOL     OW39786   4.009   8.445   0.263 -0.4766 -0.2438  0.4224
13203SOL    HW139787   4.051   8.390   0.191  0.3109 -0.3493  0.9543
13203SOL    HW239788   4.059   8.531   0.275  0.9663 -1.2842  2.5094
13204SOL     OW39789   4.171   7.370   6.624  0.0024 -0.2130  0.2158
13204SOL    HW139790   4.082   7.343   6.587  0.4777 -1.3039 -0.1654
13204SOL    HW239791   4.243   7.320   6.576  1.0270  2.3730 -1.1591
13205SOL     OW39792   6.429   3.710   5.976 -0.1184 -0.6631 -0.7822
13205SOL    HW139793   6.419   3.803   5.941 -0.4479 -0.2365  0.4083
13205SOL    HW239794   6.513   3.703   6.029 -0.3090 -0.9285 -0.5120
13206SOL     OW39795   6.833   1.098   4.788  0.1140 -0.2958 -0.3409
13206SOL    HW139796   6.812   1.001   4.777  0.9068 -0.4787 -0.2542
13206SOL    HW239797   6.804   1.128   4.878  0.1225 -0.5172 -0.2647
13207SOL     OW39798   2.781   7.637   3.027  0.0055  0.0936  0.2143
13207SOL    HW139799   2.741   7.686   2.949 -0.0528 -1.2024 -0.6135
13207SOL    HW239800   2.819   7.702   3.092 -2.1370  1.3264  0.3223
13208SOL     OW39801   1.550   3.546   2.867 -1.0227  0.6423 -0.3312
13208SOL    HW139802   1.603   3.523   2.949  0.2212  2.1485 -0.6595
13208SOL    HW239803   1.524   3.643   2.871 -1.1646  0.6721 -1.5900
13209SOL     OW39804   4.875   7.025   3.518  0.5091 -0.3474 -0.0895
13209SOL    HW139805   4.937   6.958   3.560 -1.4850 -1.6813  0.8950
13209SOL    HW239806   4.884   7.113   3.566  0.3129 -1.0634  1.3151
13210SOL     OW39807   3.977   4.636   0.943  0.4476  0.1155 -0.2164
13210SOL    HW139808   3.902   4.703   0.946 -0.2350 -0.6551  0.0833
13210SOL    HW239809   4.014   4.624   1.035 -1.3238 -2.0166  0.2746
13211SOL     OW39810   3.736   6.416   7.095 -0.6426  0.3191 -0.0912
13211SOL    HW139811   3.802   6.473   7.047  0.7840 -1.5356 -0.4229
13211SOL    HW239812   3.660   6.394   7.034 -0.2353  0.2762 -0.5843
13212SOL     OW39813   2.850   3.761   8.596 -0.4353  0.1778 -0.4505
13212SOL    HW139814   2.858   3.744   8.498 -0.3908 -0.6253 -0.3159
13212SOL    HW239815   2.855   3.860   8.614  1.4259  0.2383 -1.0978
13213SOL     OW39816   3.164   7.344   7.883  0.2819 -0.6417  0.1369
13213SOL    HW139817   3.258   7.368   7.861  0.1164 -0.9552 -0.9899
13213SOL    HW239818   3.127   7.410   7.947 -0.2138  2.3382 -2.9339
13214SOL     OW39819   7.236   7.179   6.950 -0.1831 -0.6197  0.1344
13214SOL    HW139820   7.156   7.165   7.008  1.0229 -1.6155  1.6210
13214SOL    HW239821   7.290   7.255   6.985 -0.4275  0.0150 -0.8337
13215SOL     OW39822   4.914   5.981   8.719  0.0206 -0.0821 -0.4604
13215SOL    HW139823   4.937   5.928   8.638  0.7864  0.3723 -0.5526
13215SOL    HW239824   4.980   6.056   8.730 -1.2537  1.0920 -0.5568
13216SOL     OW39825   5.316   7.039   2.719 -0.1906 -0.0172 -0.1615
13216SOL    HW139826   5.223   7.002   2.717 -0.2783  0.1573  0.4032
13216SOL    HW239827   5.379   6.969   2.751 -0.3380  0.2695  0.7873
13217SOL     OW39828   2.737   1.319   3.932 -0.0304 -0.0799 -0.1369
13217SOL    HW139829   2.725   1.409   3.974  2.5160  0.5355 -0.5332
13217SOL    HW239830   2.713   1.324   3.835 -1.9919 -0.4497  0.2875
13218SOL     OW39831   2.578   2.329   2.522 -0.5039  0.6064  0.2092
13218SOL    HW139832   2.509   2.272   2.478 -0.1694  0.3536  0.0070
13218SOL    HW239833   2.595   2.410   2.466 -1.4698  1.2582  0.8288
13219SOL     OW39834   1.426   4.408   6.793  0.2715  0.1256  0.1543
13219SOL    HW139835   1.432   4.407   6.893 -0.3664 -0.0436  0.1905
13219SOL    HW239836   1.471   4.327   6.756 -0.8182 -0.5915  0.3785
13220SOL     OW39837   0.614   7.801   8.085 -0.2878 -0.2951 -0.0609
13220SOL    HW139838   0.566   7.727   8.038  0.4620  0.2166 -1.6802
13220SOL    HW239839   0.567   7.887   8.069  1.1769  0.2436 -1.8146
13221SOL     OW39840   5.890   3.664   3.501  0.0278  0.4346  0.0272
13221SOL    HW139841   5.794   3.657   3.529  0.5033 -3.9803  1.3010
13221SOL    HW239842   5.944   3.701   3.577 -0.3950  1.0888  0.0168
13222SOL     OW39843   2.262   5.738   5.821 -0.1112 -0.3362 -0.1423
13222SOL    HW139844   2.275   5.708   5.727  0.6034 -1.0239  0.1580
13222SOL    HW239845   2.175   5.703   5.856  0.1956 -1.1550 -0.1608
13223SOL     OW39846   8.076   7.864   7.893  0.2739  0.1919 -0.1586
13223SOL    HW139847   8.084   7.802   7.816 -0.3864 -0.8582  0.5905
13223SOL    HW239848   8.045   7.954   7.861 -1.6916 -0.7139 -0.9516
13224SOL     OW39849   7.981   3.521   2.301  0.1000  0.1452 -0.1023
13224SOL    HW139850   8.074   3.483   2.305 -0.1559 -0.8876 -2.4182
13224SOL    HW239851   7.984   3.619   2.319  1.3680 -0.1530  1.6050
13225SOL     OW39852   8.671   3.698   4.391  0.2254 -0.2079  0.2528
13225SOL    HW139853   8.711   3.767   4.331 -0.6674  0.5282  0.4786
13225SOL    HW239854   8.573   3.692   4.375 -0.0835  0.1981  1.8086
13226SOL     OW39855   6.938   6.357   6.840 -0.6292 -0.6965 -0.3951
13226SOL    HW139856   6.972   6.409   6.917 -0.3571 -1.1712 -0.1932
13226SOL    HW239857   6.956   6.407   6.755  0.6842 -0.9920 -0.3092
13227SOL     OW39858   3.332   4.557   8.655  0.9158 -0.0969 -0.6764
13227SOL    HW139859   3.307   4.643   8.700  0.4956 -0.1812 -0.7390
13227SOL    HW239860   3.431   4.550   8.647  1.0012 -0.1008  0.2849
13228SOL     OW39861   0.164   5.638   8.105 -0.3203  0.1230 -0.6210
13228SOL    HW139862   0.115   5.661   8.021 -0.8018  0.2844 -0.2994
13228SOL    HW239863   0.249   5.591   8.082 -0.4778  0.1116 -1.1956
13229SOL     OW39864   8.387   0.658   4.795  0.5807  0.3836 -0.3714
13229SOL    HW139865   8.287   0.653   4.794  0.6002 -0.1566 -0.0304
13229SOL    HW239866   8.425   0.568   4.816  1.1212  0.8235  0.6041
13230SOL     OW39867   3.147   5.338   3.063 -0.0722  0.2492  0.7017
13230SOL    HW139868   3.238   5.355   3.024 -0.3053  1.8147  0.8068
13230SOL    HW239869   3.157   5.294   3.152  0.6035  0.6718  0.8452
13231SOL     OW39870   7.092   1.802   6.057  0.1948 -0.1689  0.0275
13231SOL    HW139871   7.019   1.866   6.081  1.1567  0.1517  2.4375
13231SOL    HW239872   7.056   1.709   6.054 -0.3804  0.0145  0.9240
13232SOL     OW39873   0.023   3.045   6.861  0.5427  0.2868 -0.5122
13232SOL    HW139874   0.029   2.997   6.948  1.2949  1.0723 -0.1184
13232SOL    HW239875  -0.028   3.130   6.873  0.2775  0.1970 -0.9429
13233SOL     OW39876   7.445   5.643   8.163  0.0218 -0.1700 -0.1177
13233SOL    HW139877   7.494   5.594   8.235 -0.0786  1.3111  1.0010
13233SOL    HW239878   7.354   5.603   8.151  0.0963 -0.5314  0.4825
13234SOL     OW39879   5.607   0.532   3.466  0.2092  0.2039  0.2175
13234SOL    HW139880   5.582   0.472   3.391 -2.7553 -0.4212  1.5908
13234SOL    HW239881   5.558   0.619   3.457  0.3985  0.4024  1.0375
13235SOL     OW39882   7.068   6.534   7.011 -0.7275 -0.3982 -0.3441
13235SOL    HW139883   7.032   6.548   7.103 -0.2685 -0.9745 -0.0704
13235SOL    HW239884   7.045   6.613   6.954 -0.9118  0.0180  0.2928
13236SOL     OW39885   6.703   2.762   1.870 -0.0783 -0.4918 -0.1022
13236SOL    HW139886   6.632   2.808   1.922 -0.3540 -0.6833 -0.3001
13236SOL    HW239887   6.729   2.677   1.917 -1.3009 -1.3738 -0.9297
13237SOL     OW39888   5.247   2.186   3.151 -0.0235 -0.0642  0.9882
13237SOL    HW139889   5.280   2.093   3.167 -0.1811  0.1383  2.6174
13237SOL    HW239890   5.288   2.249   3.217 -0.3686  0.9337  0.2884
13238SOL     OW39891   2.833   1.173   0.563 -0.0569 -0.1855 -0.6025
13238SOL    HW139892   2.779   1.092   0.587 -1.9792  1.1809 -0.1550
13238SOL    HW239893   2.790   1.219   0.485 -0.0597  1.4249  0.3209
13239SOL     OW39894   0.219   2.206   1.070 -0.6355  0.2891  0.1832
13239SOL    HW139895   0.144   2.168   1.125  0.4609 -1.6421  0.4118
13239SOL    HW239896   0.304   2.204   1.123 -0.0630  0.7578 -0.6959
13240SOL     OW39897   0.540   2.866   1.202  0.2260 -0.0162 -0.0512
13240SOL    HW139898   0.583   2.944   1.157 -1.4683  2.2830  2.0684
13240SOL    HW239899   0.555   2.784   1.147  2.2419  1.7136 -2.2967
13241SOL     OW39900   3.394   6.563   2.770 -0.7600  0.0918 -0.1782
13241SOL    HW139901   3.305   6.588   2.807 -1.0223 -1.3328  0.1885
13241SOL    HW239902   3.430   6.484   2.819  0.9511  0.9340  0.0233
13242SOL     OW39903   5.091   1.893   7.583  0.2651 -0.2602 -0.2281
13242SOL    HW139904   5.075   1.794   7.589  0.4898 -0.3416 -0.8736
13242SOL    HW239905   5.074   1.924   7.490 -1.1936  0.5763  0.2817
13243SOL     OW39906   0.164   8.705   4.512  0.3461  0.0892  0.0631
13243SOL    HW139907   0.137   8.762   4.590 -1.4133  2.1820 -1.9469
13243SOL    HW239908   0.219   8.759   4.448 -0.6367 -0.7148 -1.5098
13244SOL     OW39909   5.900   6.790   7.997 -0.9493  0.0106 -0.2627
13244SOL    HW139910   5.830   6.797   7.926 -1.3335 -1.4008 -0.0578
13244SOL    HW239911   5.976   6.849   7.975 -1.5977  0.5070 -1.2227
13245SOL     OW39912   4.614   4.909   8.650  0.4148  0.2021  0.5499
13245SOL    HW139913   4.535   4.857   8.616  3.2000 -3.4533 -1.0657
13245SOL    HW239914   4.652   4.964   8.576  0.9584 -0.2555  0.4812
13246SOL     OW39915   4.774   7.543   4.358  0.3362  0.4483 -0.0659
13246SOL    HW139916   4.818   7.494   4.433  0.6578 -0.3696 -0.7752
13246SOL    HW239917   4.839   7.607   4.317  1.3011 -1.6054 -1.8781
13247SOL     OW39918   6.873   1.668   5.781  0.2344  0.5613 -0.1420
13247SOL    HW139919   6.816   1.640   5.704 -0.8738 -0.4802  0.9830
13247SOL    HW239920   6.843   1.619   5.863  2.2631  0.5855  0.6786
13248SOL     OW39921   6.811   2.159   8.073  0.1143  0.0998 -0.0231
13248SOL    HW139922   6.718   2.138   8.104 -0.0792  1.0669  0.0773
13248SOL    HW239923   6.877   2.108   8.128 -0.1311  2.7112  2.9927
13249SOL     OW39924   4.869   4.877   6.598 -0.0699 -0.5520 -0.6292
13249SOL    HW139925   4.929   4.812   6.645  1.1689  0.3593 -0.8733
13249SOL    HW239926   4.818   4.830   6.526  1.9743 -1.0275 -1.8676
13250SOL     OW39927   1.987   3.582   8.096  0.2093  0.3869 -0.7909
13250SOL    HW139928   1.912   3.626   8.046 -0.1320  0.2831 -0.3698
13250SOL    HW239929   2.063   3.566   8.033 -0.7840 -1.1480 -1.6943
13251SOL     OW39930   0.706   5.799   1.583  0.1992 -0.0454 -0.0626
13251SOL    HW139931   0.742   5.845   1.664  0.3389  0.2990 -0.3138
13251SOL    HW239932   0.658   5.716   1.610 -1.9759  1.3476  0.6532
13252SOL     OW39933   5.194   2.844   0.214 -0.0882 -0.3030  0.5670
13252SOL    HW139934   5.094   2.843   0.216 -0.0988 -1.5767  0.2066
13252SOL    HW239935   5.228   2.750   0.205  1.1086  0.2347 -0.7955
13253SOL     OW39936   8.243   5.928   3.928 -0.2148 -0.3789 -0.4849
13253SOL    HW139937   8.303   5.928   3.848 -0.2715  0.3726 -0.5383
13253SOL    HW239938   8.171   5.859   3.917 -1.5420  1.1688 -2.1070
13254SOL     OW39939   2.766   6.987   4.117  0.0511 -0.2518 -0.1362
13254SOL    HW139940   2.800   7.008   4.026 -1.1987  2.6259 -0.0344
13254SOL    HW239941   2.667   6.999   4.119 -0.0332 -0.9471  1.4423
13255SOL     OW39942   3.237   6.125   8.010  0.1933 -0.3838  0.3761
13255SOL    HW139943   3.148   6.080   8.019  0.5004 -0.9282  0.7489
13255SOL    HW239944   3.226   6.224   8.019 -0.4316 -0.4141 -0.0172
13256SOL     OW39945   0.842   4.338   0.506 -0.1067  1.0604  0.1725
13256SOL    HW139946   0.852   4.279   0.426  1.4653 -0.7698  1.6225
13256SOL    HW239947   0.932   4.363   0.540 -0.7135  0.9179  1.9717
13257SOL     OW39948   4.218   3.833   2.706 -0.3284  0.2694 -0.2746
13257SOL    HW139949   4.206   3.736   2.725 -1.0984  0.3420 -0.3478
13257SOL    HW239950   4.129   3.875   2.690 -0.3507  1.6193  2.7258
13258SOL     OW39951   4.672   5.460   2.332  0.0221 -0.2255  0.5913
13258SOL    HW139952   4.708   5.545   2.370 -0.9649  0.3628  0.2371
13258SOL    HW239953   4.748   5.407   2.293  0.6562  0.4446  0.8779
13259SOL     OW39954   5.716   0.337   3.917  0.3590 -0.5232  0.0712
13259SOL    HW139955   5.640   0.304   3.861  0.6471 -2.5345  0.7623
13259SOL    HW239956   5.792   0.271   3.912  2.8608  2.2188 -2.0153
13260SOL     OW39957   0.642   8.840   2.337  0.2891 -0.4879  0.2775
13260SOL    HW139958   0.629   8.918   2.276 -1.1466  0.9881  2.3494
13260SOL    HW239959   0.558   8.785   2.340  0.0334 -0.0692  1.5032
13261SOL     OW39960   6.580   6.770   8.602 -0.6208  0.5052 -0.6527
13261SOL    HW139961   6.630   6.822   8.533  0.4508  0.4732  0.0772
13261SOL    HW239962   6.538   6.690   8.559  1.6965 -0.6398 -0.9704
13262SOL     OW39963   0.120   2.398   2.825  0.1874 -0.4890 -0.1420
13262SOL    HW139964   0.188   2.467   2.801  0.3814 -0.9318 -0.9162
13262SOL    HW239965   0.115   2.329   2.752 -1.0783 -0.4779 -0.0957
13263SOL     OW39966   0.564   4.567   6.066  0.2520 -0.2017  0.4112
13263SOL    HW139967   0.571   4.576   6.166  0.8496 -1.7995  0.5422
13263SOL    HW239968   0.486   4.509   6.044 -0.0362  0.3623 -0.0879
13264SOL     OW39969   2.636   7.061   1.342  0.2835  0.2177 -0.1885
13264SOL    HW139970   2.599   6.981   1.390 -0.0435  0.5753  0.1556
13264SOL    HW239971   2.704   7.030   1.275 -0.9685 -0.4886 -1.1732
13265SOL     OW39972   8.042   4.149   0.805  0.0068  0.5237  0.0089
13265SOL    HW139973   8.003   4.227   0.757  1.2877 -0.0703 -2.1554
13265SOL    HW239974   7.983   4.069   0.792  0.1742  0.4491 -0.3184
13266SOL     OW39975   2.412   4.556   5.924 -0.4353  1.0147 -0.1456
13266SOL    HW139976   2.380   4.487   5.859  2.3095 -1.2676  0.7093
13266SOL    HW239977   2.347   4.564   5.999  1.4285 -5.0780  2.7330
13267SOL     OW39978   8.706   7.978   0.548 -0.5539 -0.0883  0.3105
13267SOL    HW139979   8.622   7.932   0.520  0.3441 -0.3631 -2.1162
13267SOL    HW239980   8.784   7.916   0.537  0.6100  1.6883 -2.5087
13268SOL     OW39981   5.127   1.544   4.701  0.5534  0.6201 -0.2059
13268SOL    HW139982   5.069   1.588   4.770 -1.0630  0.2715 -1.2904
13268SOL    HW239983   5.141   1.448   4.726 -0.8396  0.2334 -0.8057
13269SOL     OW39984   1.805   7.385   2.567 -0.1149 -0.2174  0.2071
13269SOL    HW139985   1.772   7.474   2.536 -0.0430 -0.5854 -0.9954
13269SOL    HW239986   1.864   7.397   2.647 -1.4374  0.6409  1.0942
13270SOL     OW39987   2.289   0.415   0.785 -0.8496  0.4200  0.9339
13270SOL    HW139988   2.196   0.407   0.749 -0.8877  0.4543  1.0239
13270SOL    HW239989   2.314   0.512   0.791 -0.4871  0.3837  0.0948
13271SOL     OW39990   6.303   0.829   0.216 -0.0294 -0.2885  0.2894
13271SOL    HW139991   6.244   0.893   0.166 -2.5670 -4.2162 -2.3879
13271SOL    HW239992   6.379   0.802   0.157  0.9317  0.1279  1.3262
13272SOL     OW39993   5.681   5.029   8.090 -0.2153 -0.2043 -0.2565
13272SOL    HW139994   5.760   5.031   8.152 -0.1044  0.8110 -0.4252
13272SOL    HW239995   5.682   4.942   8.040  0.5144 -0.4168  0.0975
13273SOL     OW39996   6.298   8.606   2.492  0.2367  0.1537 -0.8018
13273SOL    HW139997   6.286   8.569   2.399  0.9038 -0.1075 -0.7919
13273SOL    HW239998   6.312   8.530   2.556 -2.8069  0.1337 -0.0369
13274SOL     OW39999   3.767   6.739   6.125 -0.4078  0.4233 -0.1224
13274SOL    HW140000   3.792   6.835   6.113  1.2520  0.1641  1.0220
13274SOL    HW240001   3.797   6.707   6.215 -2.5227 -0.7120  0.2665
13275SOL     OW40002   2.167   1.747   1.569  0.3171 -0.4778 -0.0181
13275SOL    HW140003   2.256   1.726   1.611 -0.1515  0.3225  1.4265
13275SOL    HW240004   2.182   1.791   1.480  1.3417 -3.9933 -1.7852
13276SOL     OW40005   4.505   7.142   0.447  0.3889  0.1017 -0.6523
13276SOL    HW140006   4.484   7.114   0.353  0.4215 -0.8358 -0.3933
13276SOL    HW240007   4.593   7.190   0.449  0.2891  0.3094 -1.1292
13277SOL     OW40008   1.235   4.395   0.031 -0.1100  0.3510  0.0622
13277SOL    HW140009   1.324   4.391  -0.014  0.1606  0.5995  0.5552
13277SOL    HW240010   1.181   4.470  -0.008  0.2092  0.7103  0.2894
13278SOL     OW40011   4.631   8.146   7.450  0.7461  0.1333  0.4807
13278SOL    HW140012   4.648   8.051   7.478  0.5452  0.0870  0.4554
13278SOL    HW240013   4.693   8.171   7.376 -0.8988 -0.8630 -1.3507
13279SOL     OW40014   6.701   2.891   3.651  0.5425 -0.3094 -0.0621
13279SOL    HW140015   6.661   2.804   3.622  0.2589 -0.0874 -0.3419
13279SOL    HW240016   6.779   2.914   3.592 -0.3034  0.3583 -0.9519
13280SOL     OW40017   8.322   5.700   8.100 -0.2216 -0.6385 -0.1423
13280SOL    HW140018   8.351   5.604   8.092 -0.0058 -0.7452  1.5647
13280SOL    HW240019   8.359   5.752   8.024  0.6361 -1.6946 -0.4802
13281SOL     OW40020   4.000   2.715   7.455 -0.2932 -0.8444  0.1726
13281SOL    HW140021   4.091   2.750   7.474 -1.3344  0.9743  2.1509
13281SOL    HW240022   4.006   2.645   7.383  2.7207 -1.4140  0.8358
13282SOL     OW40023   4.861   0.723   4.840 -0.5270  0.1343  0.1195
13282SOL    HW140024   4.949   0.675   4.844 -0.2325  0.6197 -0.4156
13282SOL    HW240025   4.867   0.806   4.896  0.3200  1.6783 -2.1168
13283SOL     OW40026   2.524   3.026   6.489 -0.4137 -0.1388 -0.1063
13283SOL    HW140027   2.450   3.034   6.556 -1.4124  0.3616 -1.2287
13283SOL    HW240028   2.516   2.939   6.441 -0.5717  0.1262 -0.5650
13284SOL     OW40029   7.246   5.871   3.897  0.3227 -0.7411 -0.1188
13284SOL    HW140030   7.177   5.847   3.829  0.7426  0.7436 -1.1070
13284SOL    HW240031   7.212   5.849   3.989 -0.6408 -1.8611 -0.7281
13285SOL     OW40032   2.448   2.050   3.359  0.5048 -0.1194 -0.5627
13285SOL    HW140033   2.484   2.048   3.452 -0.4530 -2.0907 -0.1691
13285SOL    HW240034   2.453   1.958   3.320 -0.3323  0.4016 -1.9718
13286SOL     OW40035   7.064   8.387   2.875 -0.5603  0.6938  0.2848
13286SOL    HW140036   7.100   8.461   2.932 -0.1063 -0.0961  1.0578
13286SOL    HW240037   7.034   8.424   2.787  0.2041  1.7022  0.4272
13287SOL     OW40038   8.123   2.209   1.035 -0.1753 -0.2504  0.0792
13287SOL    HW140039   8.152   2.287   0.979 -0.1688 -0.7369 -0.6168
13287SOL    HW240040   8.031   2.182   1.009  0.1471 -1.0193 -0.3184
13288SOL     OW40041   1.443   6.147   4.843 -0.2274  0.1984  0.4875
13288SOL    HW140042   1.460   6.124   4.747  1.1024 -1.3176  1.0471
13288SOL    HW240043   1.344   6.160   4.856 -0.2529  3.0982 -1.5831
13289SOL     OW40044   4.629   1.369   7.116 -0.1592 -0.1224 -0.3748
13289SOL    HW140045   4.529   1.363   7.120 -0.1709  0.2011 -0.0970
13289SOL    HW240046   4.667   1.341   7.204  0.0874 -1.8645 -1.0104
13290SOL     OW40047   2.444   7.821   3.659  0.4695  0.6541 -0.7305
13290SOL    HW140048   2.362   7.877   3.673 -0.4729 -0.5585 -1.1726
13290SOL    HW240049   2.495   7.855   3.580 -1.1462 -0.2178 -2.2313
13291SOL     OW40050   0.019   0.767   6.908  0.9035 -0.0645 -0.1189
13291SOL    HW140051   0.038   0.843   6.846  0.8901 -0.4888 -0.6497
13291SOL    HW240052   0.063   0.684   6.873 -0.0901 -0.5698 -0.1932
13292SOL     OW40053   4.160   3.082   8.235  0.0660  0.5064  0.3970
13292SOL    HW140054   4.079   3.122   8.278 -0.6158  0.3966 -0.7226
13292SOL    HW240055   4.142   2.986   8.213  0.6960  0.3373  0.6068
13293SOL     OW40056   5.692   7.380   6.801  0.0299 -0.4632  0.0199
13293SOL    HW140057   5.681   7.306   6.733 -1.3844 -0.7635  0.5468
13293SOL    HW240058   5.654   7.464   6.764 -0.6380 -0.6003  0.3855
13294SOL     OW40059   8.331   4.226   2.910  0.4079 -0.1531 -0.1513
13294SOL    HW140060   8.371   4.283   2.981  1.0032 -0.5629 -0.1545
13294SOL    HW240061   8.231   4.233   2.914  0.3918 -0.8425  1.2790
13295SOL     OW40062   6.349   2.526   2.558 -0.3084  0.3815  0.4459
13295SOL    HW140063   6.346   2.462   2.635  0.9905  0.7463  0.8199
13295SOL    HW240064   6.312   2.614   2.587  0.1004  0.4931  0.6368
13296SOL     OW40065   1.363   2.770   6.602 -0.1011 -0.1052 -0.2037
13296SOL    HW140066   1.332   2.680   6.631 -0.9380 -0.0860 -1.0141
13296SOL    HW240067   1.320   2.840   6.659 -0.1841 -0.1682 -0.1889
13297SOL     OW40068   7.577   1.700   1.786  0.3322 -0.0991  0.6167
13297SOL    HW140069   7.536   1.658   1.705 -1.5232  0.0580  1.4281
13297SOL    HW240070   7.553   1.797   1.788  0.8396  0.0167  1.0748
13298SOL     OW40071   0.961   6.412   6.455  0.4498  0.3348 -0.7149
13298SOL    HW140072   1.046   6.361   6.441  0.8845  0.4976  1.1763
13298SOL    HW240073   0.885   6.348   6.468  0.8800  0.1430  0.9915
13299SOL     OW40074   7.858   1.517   4.793 -0.0447  0.3265  0.4576
13299SOL    HW140075   7.855   1.439   4.855 -1.2500  0.2139  0.2690
13299SOL    HW240076   7.895   1.487   4.704  0.5129  0.2228  0.7167
13300SOL     OW40077   1.138   0.066   8.746  0.5554 -0.4670  0.1293
13300SOL    HW140078   1.159   0.138   8.680  0.2557 -0.5422 -0.0538
13300SOL    HW240079   1.163   0.096   8.838  1.9592 -0.7698 -0.1297
13301SOL     OW40080   5.650   4.383   4.948 -0.3404 -0.0914  0.1625
13301SOL    HW140081   5.624   4.467   4.996 -0.3032 -0.0238  0.0635
13301SOL    HW240082   5.740   4.353   4.980 -0.1371  0.1742 -0.1582
13302SOL     OW40083   7.574   5.394   0.158  0.3682  0.5803  0.0117
13302SOL    HW140084   7.642   5.437   0.218  0.4990 -0.5079  0.6677
13302SOL    HW240085   7.585   5.429   0.065  1.0156  1.3308  0.3587
13303SOL     OW40086   5.867   8.717   4.955 -0.0245  0.3320  0.0961
13303SOL    HW140087   5.923   8.648   4.910  1.4284  1.5081  0.0313
13303SOL    HW240088   5.879   8.711   5.054 -0.9240 -0.3363  0.1771
13304SOL     OW40089   7.967   3.881   1.989 -0.3473 -0.0985  0.3748
13304SOL    HW140090   8.044   3.840   1.941  0.3765  0.6509  0.8785
13304SOL    HW240091   7.957   3.976   1.962 -0.6833 -0.0048  0.8148
13305SOL     OW40092   2.363   2.648   3.630  0.3027  0.3655  1.0119
13305SOL    HW140093   2.444   2.630   3.574 -0.8846 -1.7022 -0.1894
13305SOL    HW240094   2.340   2.745   3.624  0.5100  0.3262 -1.7718
13306SOL     OW40095   5.553   0.714   6.239  0.2988  0.3019 -0.4692
13306SOL    HW140096   5.625   0.732   6.172  0.1229  1.6729 -0.3101
13306SOL    HW240097   5.498   0.636   6.209  1.3161 -0.2205 -1.0206
13307SOL     OW40098   0.620   3.076   1.966  0.0860  0.5486 -0.1565
13307SOL    HW140099   0.657   3.168   1.980  1.1035  0.0758  0.3905
13307SOL    HW240100   0.694   3.009   1.974 -0.3406 -0.2195 -2.1125
13308SOL     OW40101   0.615   8.847   3.301  0.0452  0.2021  0.9250
13308SOL    HW140102   0.570   8.816   3.217 -1.7967  1.1586  1.5043
13308SOL    HW240103   0.627   8.769   3.363  0.0362 -0.2251  0.3991
13309SOL     OW40104   6.143   5.719   0.113 -0.5911  0.6179  0.5452
13309SOL    HW140105   6.056   5.685   0.078 -1.1577  0.1950  2.2618
13309SOL    HW240106   6.218   5.674   0.065 -1.3290 -0.1720  0.1091
13310SOL     OW40107   0.129   2.890   2.659 -0.1109 -0.3889 -0.5252
13310SOL    HW140108   0.176   2.863   2.743  0.9120  1.0337 -0.6102
13310SOL    HW240109   0.110   2.808   2.604  0.9312 -1.1512  0.2019
13311SOL     OW40110   2.168   2.982   2.092 -0.0309 -0.5355 -0.1801
13311SOL    HW140111   2.248   2.932   2.061 -1.3253 -2.1618 -1.0733
13311SOL    HW240112   2.183   3.080   2.081  1.3376 -0.8663 -1.6035
13312SOL     OW40113   0.046   3.557   3.514  0.0143  0.0042  0.3126
13312SOL    HW140114   0.102   3.493   3.567 -0.0106 -0.5290 -0.2863
13312SOL    HW240115   0.079   3.650   3.527  0.9530 -0.2875  0.0893
13313SOL     OW40116   1.023   3.777   3.578 -0.0564  0.1397 -0.8119
13313SOL    HW140117   1.061   3.792   3.670 -2.4144  0.3762  0.1906
13313SOL    HW240118   1.093   3.798   3.510  1.3291  1.4229  0.8927
13314SOL     OW40119   7.147   4.511   0.584  0.0095  0.4481 -0.0659
13314SOL    HW140120   7.126   4.467   0.671 -3.2373 -0.3103 -1.0929
13314SOL    HW240121   7.181   4.443   0.519 -0.3024  0.4329 -0.2154
13315SOL     OW40122   6.194   1.595   3.023  0.5349 -0.3794  0.1765
13315SOL    HW140123   6.275   1.547   3.056  1.6742 -0.1005 -2.0049
13315SOL    HW240124   6.171   1.561   2.932  0.3368  1.9870 -0.7190
13316SOL     OW40125   4.232   1.706   1.239  0.2850  0.0988  0.3480
13316SOL    HW140126   4.244   1.742   1.331  1.1967  1.3721 -0.2508
13316SOL    HW240127   4.135   1.710   1.214  0.0239 -0.2900  1.2394
13317SOL     OW40128   6.769   0.111   7.421 -0.4786  0.3407 -0.4475
13317SOL    HW140129   6.761   0.022   7.467 -1.0851 -0.5359 -2.1586
13317SOL    HW240130   6.864   0.142   7.426 -0.1654 -0.6191 -0.1803
13318SOL     OW40131   4.939   8.631   1.628  0.2568 -0.6619 -0.2776
13318SOL    HW140132   4.941   8.619   1.727  1.8743  2.4159  0.1927
13318SOL    HW240133   5.005   8.570   1.585  1.4573 -0.1911  0.8407
13319SOL     OW40134   2.021   6.697   4.894  0.2119  0.0802  0.1623
13319SOL    HW140135   2.117   6.676   4.874  0.2301 -0.8046  1.1136
13319SOL    HW240136   1.968   6.695   4.809  0.5188 -2.3028 -0.0263
13320SOL     OW40137   3.678   1.927   2.727  0.5218  0.8379  0.1528
13320SOL    HW140138   3.723   2.011   2.760  0.4425  1.7666 -1.9385
13320SOL    HW240139   3.626   1.948   2.644  0.6948 -1.3438 -0.5640
13321SOL     OW40140   4.922   8.146   6.171  0.5717 -0.5423  0.3377
13321SOL    HW140141   4.878   8.071   6.220  0.2560 -0.9234 -0.5181
13321SOL    HW240142   5.015   8.159   6.206 -0.1574  0.2108  2.0910
13322SOL     OW40143   0.875   4.673   7.778  0.1266 -0.2424 -0.9804
13322SOL    HW140144   0.788   4.684   7.826 -0.0731  1.1033 -1.5923
13322SOL    HW240145   0.881   4.740   7.704  1.2271 -1.0305 -1.6414
13323SOL     OW40146   0.841   1.638   7.465  0.3856 -0.2071 -0.2462
13323SOL    HW140147   0.843   1.550   7.419 -1.5497 -0.2603 -0.2917
13323SOL    HW240148   0.791   1.704   7.408  1.4364  0.8262 -0.0180
13324SOL     OW40149   5.081   1.117   0.774 -0.0345  0.1479 -0.5889
13324SOL    HW140150   5.043   1.210   0.771  1.2943  0.6921 -1.1780
13324SOL    HW240151   5.024   1.060   0.834  0.1156  1.8068  1.2342
13325SOL     OW40152   7.967   1.848   1.584  0.2618  0.0120 -0.2524
13325SOL    HW140153   8.018   1.816   1.505  1.2359 -1.2906  0.8502
13325SOL    HW240154   7.951   1.947   1.575 -0.1303 -0.1955 -2.2928
13326SOL     OW40155   6.788   0.368   1.015 -0.5770  0.4705 -0.6077
13326SOL    HW140156   6.826   0.457   0.992 -0.6622  1.1630  1.6545
13326SOL    HW240157   6.834   0.333   1.097 -2.3954 -0.3021  0.1325
13327SOL     OW40158   1.471   5.021   5.910  0.4100  0.4211  0.0501
13327SOL    HW140159   1.391   4.974   5.949  1.1373 -1.8646 -0.9827
13327SOL    HW240160   1.487   4.985   5.818  3.3880 -0.1709  0.7123
13328SOL     OW40161   3.658   4.219   6.698 -0.0180  0.2329  0.2331
13328SOL    HW140162   3.585   4.153   6.713  0.3018 -0.2398 -0.2575
13328SOL    HW240163   3.736   4.173   6.655 -0.3280  1.2001 -1.4601
13329SOL     OW40164   8.526   7.268   8.634  0.1917 -0.3538 -0.0117
13329SOL    HW140165   8.454   7.250   8.701  0.0534 -0.4501 -0.1833
13329SOL    HW240166   8.532   7.366   8.617 -0.0953 -0.3664 -0.2047
13330SOL     OW40167   4.907   1.405   7.904 -0.2187 -0.1318  0.1105
13330SOL    HW140168   5.003   1.426   7.920 -0.0562 -1.0874  0.4308
13330SOL    HW240169   4.870   1.469   7.837  1.1807 -1.0253 -1.5699
13331SOL     OW40170   0.658   4.632   5.009 -0.2634  0.3622 -0.3207
13331SOL    HW140171   0.585   4.668   4.951  1.0622 -0.6235 -2.7590
13331SOL    HW240172   0.737   4.609   4.953  0.3189 -2.8313  1.5576
13332SOL     OW40173   1.181   1.120   6.429  0.0421  0.1016  0.0405
13332SOL    HW140174   1.265   1.082   6.468  0.9393  1.9384 -0.0086
13332SOL    HW240175   1.204   1.188   6.360 -1.5135  0.3034 -0.3075
13333SOL     OW40176   2.988   1.062   3.566 -0.6311  0.4706  0.3625
13333SOL    HW140177   3.009   1.000   3.642 -0.9679  0.2539  0.2796
13333SOL    HW240178   2.901   1.107   3.582 -1.0732 -0.1402 -0.2487
13334SOL     OW40179   8.551   7.132   0.160  0.2140 -0.8544  0.0900
13334SOL    HW140180   8.537   7.182   0.245 -3.5650 -0.4846 -0.5661
13334SOL    HW240181   8.560   7.035   0.180  0.5931 -0.6463  0.9787
13335SOL     OW40182   1.937   0.426   4.461  0.6075  0.8639  0.0086
13335SOL    HW140183   1.911   0.343   4.411  0.0673  0.5080  0.8617
13335SOL    HW240184   1.876   0.501   4.435 -0.5449  0.3370  1.1061
13336SOL     OW40185   7.277   1.707   7.888 -0.3882  0.1792 -0.6611
13336SOL    HW140186   7.189   1.750   7.866 -0.8737 -0.2343  0.3923
13336SOL    HW240187   7.314   1.748   7.972 -0.6564 -1.1358  0.1332
13337SOL     OW40188   0.964   7.865   6.809 -0.2079  0.2001 -0.0877
13337SOL    HW140189   0.975   7.784   6.866  0.3803  0.8987  0.8213
13337SOL    HW240190   0.957   7.837   6.713 -0.4970 -0.9476  0.2465
13338SOL     OW40191   0.990   3.113   5.693 -0.4124  0.0149  0.3140
13338SOL    HW140192   1.056   3.070   5.632 -3.0545 -1.9536 -1.3756
13338SOL    HW240193   0.928   3.170   5.640 -1.4572  0.0316  1.5087
13339SOL     OW40194   7.875   6.326   5.318  0.2244 -0.1466  0.5116
13339SOL    HW140195   7.889   6.416   5.276 -0.0977  0.8983  2.5200
13339SOL    HW240196   7.964   6.285   5.338  0.3746 -0.0989 -0.0453
13340SOL     OW40197   3.192   0.886   3.974  0.1343  0.1975 -0.8331
13340SOL    HW140198   3.156   0.945   3.902 -0.5671 -0.2014 -0.8125
13340SOL    HW240199   3.203   0.939   4.058 -0.3183  0.3511 -0.8670
13341SOL     OW40200   6.294   1.762   2.208 -0.3436  0.1498 -0.0783
13341SOL    HW140201   6.386   1.769   2.246 -0.5583  0.5620  0.3692
13341SOL    HW240202   6.226   1.786   2.278 -0.8684 -1.4972  0.0064
13342SOL     OW40203   4.223   1.534   2.973 -0.4015 -0.2838 -0.3653
13342SOL    HW140204   4.233   1.628   3.004 -2.4286  0.4401 -1.6841
13342SOL    HW240205   4.130   1.502   2.994 -0.4075 -1.2506 -1.7444
13343SOL     OW40206   8.629   5.116   4.073  0.0164 -0.3117 -0.1812
13343SOL    HW140207   8.555   5.127   4.139  0.2835  0.5865 -0.0108
13343SOL    HW240208   8.630   5.022   4.039 -0.9298 -0.4456  0.1283
13344SOL     OW40209   1.621   3.140   0.450 -0.7098 -0.0252 -0.2779
13344SOL    HW140210   1.661   3.114   0.361  0.7299 -0.4413  0.4587
13344SOL    HW240211   1.542   3.081   0.469 -1.1878  0.2230 -1.3707
13345SOL     OW40212   2.961   8.479   3.620 -0.4433  0.3977 -0.7476
13345SOL    HW140213   2.973   8.489   3.521  0.2027 -1.0256 -0.8484
13345SOL    HW240214   2.918   8.391   3.639 -0.5434  0.6521  0.2403
13346SOL     OW40215   5.072   1.975   3.320 -0.1958 -0.3721  0.0135
13346SOL    HW140216   5.132   1.919   3.377 -1.4745 -1.1176  0.6857
13346SOL    HW240217   5.062   1.932   3.230  1.1294  0.3450 -0.5006
13347SOL     OW40218   1.270   4.802   2.033  0.1017 -0.5365  0.0747
13347SOL    HW140219   1.231   4.787   2.124  1.2475  0.5299  0.7847
13347SOL    HW240220   1.197   4.811   1.966 -0.7581 -1.8565  0.7812
13348SOL     OW40221   3.755   1.156   5.401 -0.3296 -0.0993 -0.2108
13348SOL    HW140222   3.763   1.252   5.373  0.4577  0.2463  1.1244
13348SOL    HW240223   3.790   1.145   5.494 -0.8016 -1.6153 -0.1830
13349SOL     OW40224   2.166   2.458   5.786  0.3931  0.0948  0.4166
13349SOL    HW140225   2.115   2.409   5.857  1.8642 -0.7327  0.9416
13349SOL    HW240226   2.154   2.410   5.699  0.8393 -0.5084  0.6820
13350SOL     OW40227   1.650   0.286   2.706  0.2147  0.2532 -0.0107
13350SOL    HW140228   1.737   0.332   2.726 -0.3616  1.5131 -0.3617
13350SOL    HW240229   1.577   0.353   2.700 -0.9995 -0.8749  1.3172
13351SOL     OW40230   1.682   8.173   0.376 -0.1175  0.0038  0.3799
13351SOL    HW140231   1.756   8.223   0.421 -1.1233  0.0200  2.0743
13351SOL    HW240232   1.713   8.143   0.285  1.0698  2.2627 -0.0403
13352SOL     OW40233   2.593   6.893   4.950  0.0862 -0.5713 -0.2983
13352SOL    HW140234   2.574   6.798   4.925 -0.4808 -0.6707  0.4824
13352SOL    HW240235   2.582   6.904   5.048 -0.7998  0.5268 -0.5084
13353SOL     OW40236   8.493   6.518   4.884  0.1780 -0.2951  0.1263
13353SOL    HW140237   8.409   6.471   4.911  0.8012 -1.3886  0.2141
13353SOL    HW240238   8.470   6.603   4.837 -0.9663 -0.3007  0.6460
13354SOL     OW40239   3.970   5.116   5.615  0.0147 -0.8192 -0.5337
13354SOL    HW140240   3.928   5.029   5.590  0.5000 -0.7363 -1.6859
13354SOL    HW240241   3.949   5.185   5.546 -0.9722  0.2035  0.7223
13355SOL     OW40242   2.849   1.792   0.026 -0.3843 -0.5015 -0.3368
13355SOL    HW140243   2.809   1.749  -0.056  0.6006  1.3562 -1.8912
13355SOL    HW240244   2.834   1.891   0.021  1.0447 -0.1947  0.9761
13356SOL     OW40245   4.718   3.113   7.337  0.7859  0.1481  0.5968
13356SOL    HW140246   4.635   3.065   7.308 -0.5205  2.8475 -0.5425
13356SOL    HW240247   4.699   3.165   7.420  2.0167 -0.8643  1.5425
13357SOL     OW40248   3.046   4.686   6.409  0.7479  0.4770 -0.2928
13357SOL    HW140249   2.982   4.699   6.333  1.9179 -1.7499 -1.7937
13357SOL    HW240250   3.014   4.610   6.466  1.8214 -0.4313 -0.8623
13358SOL     OW40251   6.055   6.721   3.070 -0.1091 -0.4886 -0.1210
13358SOL    HW140252   6.068   6.819   3.061 -1.5278 -0.3710 -1.1865
13358SOL    HW240253   6.003   6.702   3.154 -0.6335 -0.2455 -0.3864
13359SOL     OW40254   3.886   0.587   3.001 -0.3284 -0.1875  0.3928
13359SOL    HW140255   3.910   0.513   3.064  0.8846  0.3308  0.5543
13359SOL    HW240256   3.906   0.558   2.907 -1.1480 -0.5605  0.3188
13360SOL     OW40257   7.686   4.332   6.299  0.8090 -0.4781  0.1405
13360SOL    HW140258   7.589   4.353   6.300  0.8863  0.0625  2.3347
13360SOL    HW240259   7.715   4.306   6.207 -1.0271  1.0486 -0.9083
13361SOL     OW40260   0.340   5.521   7.624 -0.3056 -0.1081 -0.0110
13361SOL    HW140261   0.358   5.432   7.584 -0.4631 -0.5476  0.8759
13361SOL    HW240262   0.254   5.557   7.589 -0.9264 -0.9191  0.6411
13362SOL     OW40263   2.880   1.244   7.442 -0.0370  0.1037  0.1333
13362SOL    HW140264   2.886   1.218   7.538 -2.3575  1.8771  0.8596
13362SOL    HW240265   2.794   1.212   7.403  0.9112 -0.6896 -1.4382
13363SOL     OW40266   1.231   2.936   2.458  0.4785 -0.2883  0.0677
13363SOL    HW140267   1.264   3.000   2.527 -2.8218  1.6989 -0.0020
13363SOL    HW240268   1.287   2.945   2.375  2.5728 -0.5135  1.3867
13364SOL     OW40269   6.596   2.927   0.251  0.0030 -0.0434 -0.6801
13364SOL    HW140270   6.674   2.886   0.204  0.0777 -1.7948  0.8836
13364SOL    HW240271   6.527   2.857   0.271  0.0984  0.5137  2.0307
13365SOL     OW40272   2.035   6.093   2.109  0.1247 -0.0238 -0.3140
13365SOL    HW140273   2.134   6.079   2.106  0.2131  0.5565 -0.3274
13365SOL    HW240274   1.994   6.031   2.176  0.3723 -0.9237 -0.9697
13366SOL     OW40275   1.886   1.676   0.228 -0.2494 -0.1312  0.3832
13366SOL    HW140276   1.964   1.729   0.196  0.8328 -1.3517  0.8997
13366SOL    HW240277   1.919   1.596   0.279 -1.8656  0.8390  3.1150
13367SOL     OW40278   3.616   5.519   3.366  0.4728 -0.0724  0.1276
13367SOL    HW140279   3.564   5.451   3.419  2.3068 -1.0014  0.8212
13367SOL    HW240280   3.627   5.602   3.421 -2.0305  0.9964 -0.8338
13368SOL     OW40281   0.262   1.051   8.079 -0.2140  0.2023  0.3659
13368SOL    HW140282   0.329   1.124   8.073 -1.5788  1.3690 -2.6763
13368SOL    HW240283   0.279   0.984   8.006 -0.8595 -0.8804  1.1660
13369SOL     OW40284   8.701   0.858   0.332  0.5707  0.5144 -0.2017
13369SOL    HW140285   8.704   0.955   0.358 -1.9706  0.2191  1.5702
13369SOL    HW240286   8.778   0.810   0.373  0.3004  1.3148  1.3209
13370SOL     OW40287   0.287   5.285   0.293  0.2253 -0.5908 -0.0737
13370SOL    HW140288   0.253   5.246   0.379 -3.0327  1.5858 -0.1752
13370SOL    HW240289   0.243   5.238   0.216 -1.1733  0.9873 -0.2893
13371SOL     OW40290   2.128   2.028   1.983 -0.1277  0.4690 -0.6831
13371SOL    HW140291   2.036   2.024   1.941 -1.0263 -0.4044  1.2594
13371SOL    HW240292   2.123   2.078   2.069  1.0302 -0.3422 -0.1178
13372SOL     OW40293   8.347   1.144   3.200  0.4407 -0.3764 -0.2098
13372SOL    HW140294   8.350   1.045   3.209 -0.2366 -0.2674  1.8677
13372SOL    HW240295   8.292   1.182   3.274  1.0336  1.5878 -0.7138
13373SOL     OW40296   7.740   6.535   6.541 -0.0457  0.2606  0.5892
13373SOL    HW140297   7.694   6.482   6.470  1.2549  0.8001 -0.7008
13373SOL    HW240298   7.673   6.593   6.588 -0.8381  0.3304 -0.5849
13374SOL     OW40299   1.906   1.616   7.140  0.1417 -0.2095  0.1674
13374SOL    HW140300   1.880   1.592   7.046  0.0439 -0.9564  0.3781
13374SOL    HW240301   1.998   1.581   7.159  1.4440  2.5368 -0.6178
13375SOL     OW40302   2.702   4.311   0.852  0.1045 -0.2269  0.6745
13375SOL    HW140303   2.629   4.273   0.909 -1.4991 -0.5675 -1.4624
13375SOL    HW240304   2.760   4.237   0.819 -0.2237 -0.2884  0.2249
13376SOL     OW40305   7.814   1.938   1.835  0.4619  0.3083  0.3354
13376SOL    HW140306   7.835   1.940   1.738 -1.7563  1.9032 -0.1839
13376SOL    HW240307   7.782   2.028   1.864  0.9773 -0.1608  2.5459
13377SOL     OW40308   7.702   0.826   4.818 -0.2173  0.2641  0.0393
13377SOL    HW140309   7.741   0.738   4.844  0.2849  0.5448  0.2453
13377SOL    HW240310   7.684   0.826   4.720 -2.7908 -1.0635  0.4031
13378SOL     OW40311   4.706   1.605   7.348  0.3000 -0.1925 -0.1176
13378SOL    HW140312   4.782   1.595   7.283  1.0091 -2.5680  0.9644
13378SOL    HW240313   4.619   1.604   7.298  0.8924  1.0394 -1.2412
13379SOL     OW40314   7.177   0.392   6.870  0.1498  0.5341  0.3098
13379SOL    HW140315   7.254   0.338   6.835  1.6513  2.6731  0.1888
13379SOL    HW240316   7.130   0.436   6.793 -1.0320 -0.4458  0.4203
13380SOL     OW40317   8.217   1.421   2.638 -0.6164 -0.7072 -0.1198
13380SOL    HW140318   8.134   1.472   2.660  1.0535  1.3666  1.8212
13380SOL    HW240319   8.197   1.323   2.643 -3.4947 -0.3668 -2.2494
13381SOL     OW40320   3.604   4.616   8.765  0.1767  0.4080  0.7619
13381SOL    HW140321   3.702   4.619   8.750  0.2110 -0.7480  0.7122
13381SOL    HW240322   3.577   4.693   8.823  0.9685  1.2471  0.0457
13382SOL     OW40323   3.496   2.251   0.183  0.2130  0.1798  0.6829
13382SOL    HW140324   3.576   2.289   0.136  0.9662  1.1581  2.6406
13382SOL    HW240325   3.524   2.216   0.272 -1.3480 -0.6148  0.8870
13383SOL     OW40326   3.426   2.387   4.463 -0.2337  0.3746 -0.5253
13383SOL    HW140327   3.352   2.417   4.524 -0.2285  0.2502 -0.4562
13383SOL    HW240328   3.427   2.444   4.381 -0.2834  0.5014 -0.4390
13384SOL     OW40329   5.361   2.753   7.835  0.2436 -0.5101  0.3125
13384SOL    HW140330   5.439   2.724   7.780 -0.7053 -1.1714 -0.7144
13384SOL    HW240331   5.307   2.674   7.863 -0.5368 -0.0161  0.2685
13385SOL     OW40332   3.177   6.380   8.032 -0.0072  0.4032 -0.1280
13385SOL    HW140333   3.167   6.460   7.972  0.2351  0.3640 -0.2219
13385SOL    HW240334   3.087   6.348   8.060 -0.1095  0.6514 -0.1682
13386SOL     OW40335   6.595   1.051   8.330 -0.4644  0.4637 -0.3291
13386SOL    HW140336   6.519   1.099   8.372 -2.5433 -0.7371 -2.4486
13386SOL    HW240337   6.681   1.082   8.371 -1.9238  3.0831  1.0409
13387SOL     OW40338   5.126   2.745   5.968 -0.6026  0.3373  0.0881
13387SOL    HW140339   5.163   2.833   5.997 -0.9940  0.6938 -0.4653
13387SOL    HW240340   5.031   2.737   5.998 -0.9004  0.5611 -0.7507
13388SOL     OW40341   1.421   6.254   3.085  0.3171 -0.3230 -0.7164
13388SOL    HW140342   1.440   6.210   3.173  0.3352 -1.9702 -1.5117
13388SOL    HW240343   1.373   6.340   3.101  0.7952 -0.3290  0.9258
13389SOL     OW40344   7.967   8.244   8.399  0.3019  0.6635 -0.2088
13389SOL    HW140345   7.918   8.265   8.484 -1.4296 -0.5792 -0.8481
13389SOL    HW240346   8.058   8.208   8.421 -0.7470 -1.2838  1.2243
13390SOL     OW40347   3.104   6.333   6.676  0.1623 -0.6691 -0.2235
13390SOL    HW140348   3.153   6.295   6.598 -0.8184 -0.5541 -0.9096
13390SOL    HW240349   3.149   6.305   6.761  1.1078 -0.9788 -0.8192
13391SOL     OW40350   5.448   3.006   3.818 -0.0333  0.2905 -0.2019
13391SOL    HW140351   5.360   2.976   3.855  2.1360 -3.2246  2.7977
13391SOL    HW240352   5.504   3.044   3.892  0.9362  2.8509 -2.1076
13392SOL     OW40353   1.746   2.278   6.417  0.3659  0.1178  0.7406
13392SOL    HW140354   1.840   2.301   6.393 -0.4205  1.2797 -1.4836
13392SOL    HW240355   1.705   2.355   6.466 -0.1730  0.6530 -0.5347
13393SOL     OW40356   0.311   4.588   7.263  0.2424 -0.0568  0.0215
13393SOL    HW140357   0.300   4.502   7.313 -1.4751  0.1224  0.0150
13393SOL    HW240358   0.285   4.665   7.323  0.3932  0.3414 -0.4189
13394SOL     OW40359   3.041   0.336   0.909 -0.0240 -0.1534  0.2321
13394SOL    HW140360   3.013   0.429   0.932 -0.0231  0.0483 -0.5484
13394SOL    HW240361   3.108   0.339   0.834 -0.6595 -0.8165 -0.3816
13395SOL     OW40362   6.962   5.162   7.821  0.0030  0.9283 -0.1693
13395SOL    HW140363   7.010   5.077   7.799 -0.8183  0.9268 -2.2046
13395SOL    HW240364   7.019   5.219   7.880  1.3895 -0.1853 -0.3985
13396SOL     OW40365   8.667   8.842   7.427 -0.2510 -0.3879  0.3873
13396SOL    HW140366   8.692   8.934   7.398  0.7569 -0.4827  0.9134
13396SOL    HW240367   8.578   8.818   7.389  0.2084  0.1827 -1.1064
13397SOL     OW40368   2.282   6.714   4.631  0.0545 -0.4445  0.0190
13397SOL    HW140369   2.342   6.678   4.560 -2.7361 -3.5945 -0.9663
13397SOL    HW240370   2.218   6.643   4.660 -1.4149  1.8820  3.0066
13398SOL     OW40371   2.785   4.665   2.744  0.5067  0.1863  0.1052
13398SOL    HW140372   2.744   4.675   2.835 -0.7810  0.2840 -0.4656
13398SOL    HW240373   2.740   4.589   2.696 -0.4495  1.5963 -1.3014
13399SOL     OW40374   7.869   4.213   0.083 -0.4138  0.2729  0.4476
13399SOL    HW140375   7.895   4.298   0.129  1.3588 -0.0587  0.1300
13399SOL    HW240376   7.869   4.138   0.149 -2.5936  0.5646  0.8662
13400SOL     OW40377   1.118   6.326   2.878  0.1595  0.0983  0.1186
13400SOL    HW140378   1.091   6.416   2.913 -2.1608 -0.2054 -0.7277
13400SOL    HW240379   1.121   6.261   2.954  2.8680  0.9917  0.9254
13401SOL     OW40380   2.419   4.495   3.829 -0.0805 -0.4110 -0.4094
13401SOL    HW140381   2.443   4.542   3.743  0.6772  0.4067  0.2260
13401SOL    HW240382   2.361   4.555   3.884 -3.7228 -2.3029 -1.8526
13402SOL     OW40383   1.860   7.342   1.369 -0.0708  0.2084  0.4501
13402SOL    HW140384   1.857   7.348   1.270  1.3604  1.6497  0.4459
13402SOL    HW240385   1.786   7.283   1.402  0.0758 -1.1596 -1.5199
13403SOL     OW40386   3.240   2.668   8.546 -0.1468  0.1216 -0.2301
13403SOL    HW140387   3.192   2.751   8.513  0.1927  0.2751 -0.3418
13403SOL    HW240388   3.278   2.619   8.467 -0.5036 -0.2441 -0.1810
13404SOL     OW40389   1.266   6.413   7.933 -0.3474  0.2932  0.2670
13404SOL    HW140390   1.323   6.332   7.943  1.5946  1.3290 -1.5794
13404SOL    HW240391   1.265   6.464   8.018  1.2725  0.0962  0.4295
13405SOL     OW40392   1.654   1.668   2.379 -0.3710 -0.7779 -0.5912
13405SOL    HW140393   1.585   1.620   2.433  0.4790 -1.4712 -0.1035
13405SOL    HW240394   1.655   1.632   2.286 -1.8043  0.3848 -1.0943
13406SOL     OW40395   1.649   3.364   8.229  0.1737 -0.0027 -0.6317
13406SOL    HW140396   1.614   3.440   8.174 -2.4515 -0.5543  0.1561
13406SOL    HW240397   1.595   3.282   8.212  1.2691 -1.0018  0.4955
13407SOL     OW40398   5.964   2.270   5.709  0.1088 -0.2680 -0.6782
13407SOL    HW140399   5.927   2.362   5.695  0.3380 -0.0755 -0.0654
13407SOL    HW240400   5.921   2.228   5.788  0.5452 -0.3950 -0.5056
13408SOL     OW40401   3.349   4.012   8.063 -0.2734 -0.3821 -0.1940
13408SOL    HW140402   3.263   3.962   8.069 -1.2508  1.2124 -0.4509
13408SOL    HW240403   3.425   3.947   8.064 -1.3941 -1.7532  1.4592
13409SOL     OW40404   0.222   2.591   4.163  0.1078 -0.3016  0.2920
13409SOL    HW140405   0.193   2.509   4.214  2.4489 -1.6034 -0.3260
13409SOL    HW240406   0.247   2.565   4.070 -1.4349  1.5861 -0.7239
13410SOL     OW40407   7.307   6.800   5.437  0.1903  1.3121 -0.3963
13410SOL    HW140408   7.220   6.804   5.486 -0.3463 -2.3594 -0.7322
13410SOL    HW240409   7.383   6.812   5.501 -0.5446 -0.9988  1.0335
13411SOL     OW40410   4.085   4.516   1.472  0.3486  0.2626  0.2858
13411SOL    HW140411   4.076   4.548   1.378  1.7225  1.7581  0.6014
13411SOL    HW240412   4.018   4.444   1.491 -0.8436  0.8848 -1.4131
13412SOL     OW40413   0.865   7.165   8.208  0.0532 -0.0035  0.1252
13412SOL    HW140414   0.857   7.245   8.268 -1.8909 -0.7204  0.8787
13412SOL    HW240415   0.815   7.182   8.123  0.8144  0.1031 -0.3075
13413SOL     OW40416   2.947   5.034   0.701 -0.0060 -0.1608  0.1949
13413SOL    HW140417   3.010   4.958   0.717 -0.3398 -0.3649  0.5526
13413SOL    HW240418   2.982   5.091   0.627  0.0009 -0.9334 -0.4046
13414SOL     OW40419   3.041   0.561   1.717 -0.0231  0.0534 -0.7980
13414SOL    HW140420   3.111   0.630   1.734  0.2522 -0.0166 -1.6015
13414SOL    HW240421   3.083   0.470   1.718 -0.0193  0.0367 -1.6740
13415SOL     OW40422   2.947   1.330   2.508 -0.2682 -0.4642 -0.2397
13415SOL    HW140423   2.991   1.414   2.540 -0.3930 -0.5242  0.0938
13415SOL    HW240424   2.984   1.305   2.419 -0.0029 -0.2258 -0.1984
13416SOL     OW40425   4.273   0.489   6.266  0.1532  0.1162 -0.1092
13416SOL    HW140426   4.215   0.558   6.223 -0.9716  0.4427  1.8033
13416SOL    HW240427   4.245   0.398   6.235 -0.2731  0.3642 -0.4711
13417SOL     OW40428   3.971   7.334   4.260 -0.9164 -0.6122 -0.3369
13417SOL    HW140429   3.912   7.265   4.218 -1.4373 -0.3169 -0.0994
13417SOL    HW240430   4.052   7.290   4.298  0.3205 -0.7507 -2.8919
13418SOL     OW40431   5.055   0.752   6.320  0.2497 -0.7732 -0.1526
13418SOL    HW140432   4.975   0.749   6.259 -0.1407  1.1426  0.1865
13418SOL    HW240433   5.024   0.745   6.415  0.3071  1.1374  0.0472
13419SOL     OW40434   6.294   2.973   7.852 -0.6641  0.3987  0.3227
13419SOL    HW140435   6.242   2.905   7.904 -0.4227 -0.4229 -0.4947
13419SOL    HW240436   6.368   2.928   7.803 -1.7958  0.8917 -1.9643
13420SOL     OW40437   2.573   1.969   8.062 -0.3382  0.1075  0.4484
13420SOL    HW140438   2.542   1.874   8.068  0.0854 -0.0154  0.6916
13420SOL    HW240439   2.614   1.985   7.972 -0.1040 -0.0296  0.5320
13421SOL     OW40440   1.023   1.711   0.885  0.0419 -0.4267  0.8189
13421SOL    HW140441   1.112   1.667   0.901  0.7813  0.2534 -1.0912
13421SOL    HW240442   0.974   1.662   0.813 -0.3562  0.2155  0.6426
13422SOL     OW40443   0.861   4.606   3.186 -0.1306  0.1118 -0.4535
13422SOL    HW140444   0.947   4.597   3.236 -0.2729  0.9791 -0.0343
13422SOL    HW240445   0.834   4.516   3.151 -1.0280 -1.0370  2.7438
13423SOL     OW40446   1.761   8.765   7.696 -0.6431 -0.4445 -0.1272
13423SOL    HW140447   1.696   8.690   7.680 -2.6273  0.6455  2.0914
13423SOL    HW240448   1.768   8.821   7.613 -2.3867 -0.7505 -0.5297
13424SOL     OW40449   2.560   3.341   1.225  0.4294 -0.5472 -0.1777
13424SOL    HW140450   2.470   3.365   1.188  0.8485  0.0672 -0.8280
13424SOL    HW240451   2.631   3.366   1.158  1.1010 -0.7933  0.4324
13425SOL     OW40452   7.576   4.777   3.196  0.2225 -0.5919 -0.5734
13425SOL    HW140453   7.666   4.814   3.217 -0.1808  0.6330 -0.9135
13425SOL    HW240454   7.512   4.801   3.269 -0.3963  0.7640 -1.5094
13426SOL     OW40455   8.597   0.210   8.643  0.4166 -0.1353 -0.1558
13426SOL    HW140456   8.661   0.274   8.686  0.6972 -0.2644 -0.3757
13426SOL    HW240457   8.528   0.261   8.592 -0.4439  0.0605  1.1473
13427SOL     OW40458   2.396   8.344   7.902 -0.5898  0.1215 -0.1307
13427SOL    HW140459   2.327   8.308   7.839 -2.0334 -0.5633  1.7636
13427SOL    HW240460   2.403   8.285   7.982  0.1032  1.7548  1.0660
13428SOL     OW40461   3.503   5.699   6.020 -0.3856 -0.1312 -0.2676
13428SOL    HW140462   3.488   5.767   6.091  2.8043 -1.4978  1.9064
13428SOL    HW240463   3.453   5.615   6.042  1.7464 -1.0659  1.2941
13429SOL     OW40464   8.850   1.529   8.088 -0.0725  0.2960 -0.6609
13429SOL    HW140465   8.825   1.625   8.077 -1.4965  0.0436  0.0994
13429SOL    HW240466   8.892   1.516   8.178 -1.6776 -0.0958  0.0702
13430SOL     OW40467   3.672   1.889   0.769 -0.9278  0.3995  0.1206
13430SOL    HW140468   3.589   1.924   0.813 -1.2177 -0.1819  0.0463
13430SOL    HW240469   3.712   1.817   0.825  0.0044  1.2576  0.5693
13431SOL     OW40470   2.464   5.015   1.883  0.1891 -0.0799 -0.6041
13431SOL    HW140471   2.514   4.966   1.954  1.0389 -1.1715 -1.8906
13431SOL    HW240472   2.498   4.986   1.793 -1.8928  0.0995 -1.5004
13432SOL     OW40473   1.046   3.283   5.889  0.0041 -0.2275 -0.0014
13432SOL    HW140474   0.956   3.322   5.907  0.8898  1.4124  1.0854
13432SOL    HW240475   1.044   3.236   5.801 -1.5769  0.8856 -0.6127
13433SOL     OW40476   0.905   6.461   8.458 -0.1362  0.7547  0.0533
13433SOL    HW140477   0.996   6.502   8.453 -0.2715  0.8918 -1.6871
13433SOL    HW240478   0.836   6.533   8.462 -0.2251  0.6494  0.6070
13434SOL     OW40479   2.753   3.507   5.808 -0.0127  0.2923  0.3046
13434SOL    HW140480   2.724   3.412   5.795  0.6680  0.0334  0.5983
13434SOL    HW240481   2.836   3.523   5.754 -0.1770  0.7429  0.1900
13435SOL     OW40482   0.171   5.857   7.678 -0.0977  0.2084  0.6108
13435SOL    HW140483   0.156   5.939   7.623  0.5302 -0.8257 -1.1867
13435SOL    HW240484   0.184   5.779   7.618 -2.6688 -1.6383  2.2385
13436SOL     OW40485   1.404   6.838   8.858 -0.7166 -0.1361 -0.0964
13436SOL    HW140486   1.464   6.908   8.898  0.9558 -2.3196  1.4951
13436SOL    HW240487   1.314   6.842   8.902 -0.4542  0.6309  0.3896
13437SOL     OW40488   6.219   7.442   5.567 -0.2228 -0.2509  0.3629
13437SOL    HW140489   6.245   7.537   5.555  0.7899 -0.3800  1.3600
13437SOL    HW240490   6.226   7.417   5.664 -1.3076 -1.1083  0.2464
13438SOL     OW40491   3.174   6.786   6.558  0.6318  0.2075  0.1841
13438SOL    HW140492   3.232   6.707   6.577 -0.8177 -1.1830 -0.9013
13438SOL    HW240493   3.111   6.800   6.635  0.0598 -0.4984 -0.1416
13439SOL     OW40494   1.172   8.258   3.486  0.1315 -0.3521  0.0034
13439SOL    HW140495   1.173   8.327   3.414 -0.9115 -0.3226 -0.0057
13439SOL    HW240496   1.078   8.245   3.518  0.7477  1.0066  2.6743
13440SOL     OW40497   5.690   1.934   4.755 -0.5470 -0.1927  0.7672
13440SOL    HW140498   5.652   1.867   4.691  0.9486  0.5094 -0.9465
13440SOL    HW240499   5.745   1.888   4.824 -1.9022 -0.9351  1.3983
13441SOL     OW40500   1.043   3.637   5.100  0.4742  0.2365  0.1271
13441SOL    HW140501   0.982   3.715   5.083  0.5339  0.0939 -0.8163
13441SOL    HW240502   1.031   3.605   5.194 -0.3266  0.7128  0.1991
13442SOL     OW40503   3.105   3.323   8.380 -0.3050 -0.3227  0.6152
13442SOL    HW140504   3.078   3.348   8.473 -0.6326  0.9676  0.1941
13442SOL    HW240505   3.039   3.258   8.342 -1.0897  0.4216  0.6974
13443SOL     OW40506   6.462   5.593   8.234 -0.0692  0.0960 -0.0259
13443SOL    HW140507   6.413   5.664   8.183 -0.5621 -0.1688  0.0749
13443SOL    HW240508   6.523   5.544   8.171 -1.2710 -0.7659 -0.5735
13444SOL     OW40509   6.957   1.286   2.278 -0.2039  0.1878 -0.2615
13444SOL    HW140510   6.927   1.191   2.282 -0.0793  0.1383 -0.5024
13444SOL    HW240511   7.021   1.298   2.203  0.8120  0.1764  0.5868
13445SOL     OW40512   1.365   3.212   2.034  0.6334  0.5816  0.1246
13445SOL    HW140513   1.378   3.190   1.937  0.9690  1.4751 -0.0456
13445SOL    HW240514   1.448   3.256   2.069  1.9828 -2.8252  1.7789
13446SOL     OW40515   5.726   4.449   2.719 -0.5042 -0.3495 -0.3412
13446SOL    HW140516   5.783   4.502   2.781  0.8394 -1.5071 -0.5398
13446SOL    HW240517   5.687   4.371   2.768  0.5459 -1.2548 -0.9119
13447SOL     OW40518   1.296   8.647   1.780 -0.2428  0.1944  0.4449
13447SOL    HW140519   1.373   8.681   1.726  0.7614 -2.2196  0.2212
13447SOL    HW240520   1.316   8.657   1.877  1.1313 -1.8079  0.4292
13448SOL     OW40521   8.781   6.570   4.089 -0.4877  0.3583 -0.0793
13448SOL    HW140522   8.712   6.618   4.035  0.9082  1.8544 -0.6191
13448SOL    HW240523   8.784   6.609   4.181 -0.1489  0.5173 -0.1570
13449SOL     OW40524   0.578   6.945   4.823  0.2318  0.0547  0.3059
13449SOL    HW140525   0.618   6.855   4.839  0.8238  0.2949  0.1666
13449SOL    HW240526   0.627   6.992   4.750  1.1358  1.2512  1.6427
13450SOL     OW40527   6.740   8.274   0.927  0.0952  0.2851  0.9760
13450SOL    HW140528   6.838   8.255   0.920 -0.2863 -2.2119  1.5876
13450SOL    HW240529   6.694   8.246   0.842 -0.1605  1.0067  0.8709
13451SOL     OW40530   7.963   7.834   6.226  0.5998  0.1404 -0.5770
13451SOL    HW140531   8.010   7.910   6.271  1.8892 -0.4783 -0.8142
13451SOL    HW240532   8.011   7.811   6.141 -0.6898  0.0635 -1.3002
13452SOL     OW40533   6.042   7.763   4.090  0.0556 -0.0060  0.9370
13452SOL    HW140534   5.974   7.833   4.114 -0.1881 -0.1941  0.8079
13452SOL    HW240535   5.996   7.675   4.079  0.4439 -0.3120  1.6789
13453SOL     OW40536   3.873   3.531   3.334 -0.4723 -0.1473 -0.0905
13453SOL    HW140537   3.856   3.568   3.425  0.1423  0.2990 -0.1500
13453SOL    HW240538   3.802   3.563   3.271 -0.3838  0.2919  0.0314
13454SOL     OW40539   0.458   0.894   3.571 -0.4200  0.2365  0.4931
13454SOL    HW140540   0.508   0.855   3.493 -2.2003  0.1575 -0.6485
13454SOL    HW240541   0.521   0.904   3.648  1.9096  2.0699 -1.4693
13455SOL     OW40542   3.282   4.338   1.622 -0.6299 -0.3736  0.2734
13455SOL    HW140543   3.296   4.343   1.523  0.9856 -2.2618  0.3602
13455SOL    HW240544   3.297   4.428   1.662 -1.7973  0.5445 -1.2136
13456SOL     OW40545   6.075   7.450   0.912  1.0464  0.2424 -0.3920
13456SOL    HW140546   6.139   7.509   0.862  0.9209  1.6221  0.9862
13456SOL    HW240547   6.093   7.459   1.011 -0.8951  0.2088 -0.0073
13457SOL     OW40548   4.581   6.662   1.155  0.4635 -0.3749 -0.7773
13457SOL    HW140549   4.637   6.651   1.072 -0.1892 -0.6882 -1.1831
13457SOL    HW240550   4.522   6.582   1.165  1.1350 -0.7430  0.4596
13458SOL     OW40551   2.957   0.625   6.291 -0.3362  0.0212  0.6100
13458SOL    HW140552   2.878   0.563   6.291 -0.2315 -0.1312  1.7300
13458SOL    HW240553   3.029   0.587   6.233 -0.8396 -0.1443  0.0754
13459SOL     OW40554   4.717   7.995   0.371  0.5169 -0.1003 -0.5852
13459SOL    HW140555   4.661   7.979   0.452 -0.5928 -0.0970 -1.3258
13459SOL    HW240556   4.697   8.085   0.333 -1.1855 -1.1854 -2.5026
13460SOL     OW40557   3.827   5.245   1.354 -0.3547  0.0848  0.4890
13460SOL    HW140558   3.825   5.289   1.264 -1.3563  0.7533  0.8169
13460SOL    HW240559   3.871   5.155   1.347 -0.5527  0.0689 -0.6966
13461SOL     OW40560   4.501   2.822   1.886  0.2028 -0.2386  0.2380
13461SOL    HW140561   4.495   2.833   1.985  2.1467 -0.1853  0.3818
13461SOL    HW240562   4.420   2.862   1.843 -0.3165  0.3874  1.7460
13462SOL     OW40563   5.885   0.166   3.431 -0.6625 -0.4229  0.0903
13462SOL    HW140564   5.982   0.188   3.420 -1.0423  1.6858  0.5432
13462SOL    HW240565   5.876   0.081   3.483  0.9555  0.2948  1.6647
13463SOL     OW40566   8.413   7.579   1.032  0.1227 -0.4559 -0.2694
13463SOL    HW140567   8.319   7.614   1.027 -0.5529 -1.9212  0.9258
13463SOL    HW240568   8.465   7.632   1.099 -0.7850 -1.3858  1.2676
13464SOL     OW40569   6.167   5.171   0.870  0.3393  0.8748 -0.5934
13464SOL    HW140570   6.204   5.240   0.807  0.3824  1.3146 -0.0988
13464SOL    HW240571   6.082   5.134   0.832  1.3654 -0.3053 -1.8447
13465SOL     OW40572   7.213   7.903   7.285 -0.5283 -0.1519  0.0473
13465SOL    HW140573   7.261   7.901   7.197  0.7318  2.9208  0.5478
13465SOL    HW240574   7.253   7.973   7.343 -3.2838  0.0036  1.9541
13466SOL     OW40575   8.244   6.940   8.816  0.1070 -0.1525  0.3982
13466SOL    HW140576   8.272   7.035   8.804 -1.5604  0.5012  1.3771
13466SOL    HW240577   8.195   6.909   8.735  1.0081 -0.3305 -0.0899
13467SOL     OW40578   1.088   8.068   1.492  0.0805 -0.0265 -0.1300
13467SOL    HW140579   1.188   8.063   1.489  0.0208 -1.4441 -2.1675
13467SOL    HW240580   1.056   8.129   1.420 -0.5345  1.6672  1.4996
13468SOL     OW40581   6.344   1.783   2.630 -0.1264 -0.2359 -0.3323
13468SOL    HW140582   6.294   1.810   2.713 -2.8394  0.1923 -1.9892
13468SOL    HW240583   6.365   1.686   2.634  3.6372  0.4756  2.6555
13469SOL     OW40584   8.318   7.647   8.242 -0.9255  0.3661  0.0941
13469SOL    HW140585   8.312   7.702   8.159  2.1659 -0.2620 -0.6964
13469SOL    HW240586   8.281   7.555   8.225 -0.8682  0.4338 -0.4048
13470SOL     OW40587   6.449   1.305   7.568 -0.3545 -0.2702 -0.0884
13470SOL    HW140588   6.431   1.214   7.531  0.2411 -0.6995  0.6539
13470SOL    HW240589   6.365   1.345   7.604 -0.3843 -1.0217  0.6757
13471SOL     OW40590   3.649   2.658   3.591  0.2809  0.3315 -0.6585
13471SOL    HW140591   3.722   2.601   3.629  2.1328  1.0786 -2.8479
13471SOL    HW240592   3.627   2.625   3.499 -2.0277  0.3025 -0.1668
13472SOL     OW40593   0.106   2.977   7.399  0.5170  0.2764 -0.2590
13472SOL    HW140594   0.080   2.916   7.474  1.3971  0.2429  0.0402
13472SOL    HW240595   0.028   3.033   7.372  0.4505  1.0360  1.3928
13473SOL     OW40596   7.723   0.480   8.098  0.1387  0.2204  0.0921
13473SOL    HW140597   7.735   0.513   8.004  1.0652  0.7611  0.3841
13473SOL    HW240598   7.739   0.382   8.102  1.1686  0.3645 -0.1471
13474SOL     OW40599   2.137   1.979   0.911 -0.4501 -0.4604  0.1489
13474SOL    HW140600   2.087   1.975   0.997  0.2948  0.5550  0.6495
13474SOL    HW240601   2.232   2.004   0.929 -0.2707 -0.3044 -0.9646
13475SOL     OW40602   1.395   4.648   8.821  0.0758 -0.3559 -0.0285
13475SOL    HW140603   1.349   4.664   8.908  0.5433  0.1129  0.1331
13475SOL    HW240604   1.433   4.555   8.820  0.4122 -0.2223  0.4181
13476SOL     OW40605   5.197   4.872   0.946  0.5475 -0.1624 -0.7274
13476SOL    HW140606   5.178   4.879   0.848  0.3280 -0.4123 -0.7021
13476SOL    HW240607   5.283   4.919   0.966  0.0526  0.8310 -0.8650
13477SOL     OW40608   4.320   0.768   1.973 -0.2098 -0.0280 -0.1960
13477SOL    HW140609   4.319   0.718   1.887 -0.2714  0.7897 -0.6874
13477SOL    HW240610   4.255   0.845   1.967  0.4438  0.5681  0.2447
13478SOL     OW40611   6.941   0.571   8.089 -0.0387 -0.0371  0.5603
13478SOL    HW140612   6.888   0.487   8.103 -0.3319  0.5068  3.2275
13478SOL    HW240613   7.038   0.547   8.075 -0.2304 -0.8518  0.5775
13479SOL     OW40614   6.099   8.808   5.429  0.6432 -0.1653 -0.0399
13479SOL    HW140615   6.101   8.718   5.472 -0.0137 -0.3449 -0.3597
13479SOL    HW240616   6.089   8.878   5.499 -1.9143 -0.5381  0.0933
13480SOL     OW40617   5.711   6.662   4.318 -0.4850 -0.0641  0.7576
13480SOL    HW140618   5.809   6.676   4.306 -0.1083 -1.4360  1.9328
13480SOL    HW240619   5.693   6.634   4.413 -1.9947  0.0210  0.5180
13481SOL     OW40620   5.416   8.402   0.471  0.0372 -0.4153  0.0678
13481SOL    HW140621   5.349   8.436   0.537 -1.3809 -1.4971 -0.7560
13481SOL    HW240622   5.387   8.427   0.378  2.1577  1.3537 -0.2055
13482SOL     OW40623   2.039   5.911   7.064  0.6278 -0.1738 -0.0920
13482SOL    HW140624   2.060   6.008   7.078 -0.9163  0.3770 -1.2247
13482SOL    HW240625   1.986   5.877   7.142 -0.9367  0.6185 -0.7533
13483SOL     OW40626   3.770   6.708   1.856  0.1916  0.6852 -0.2042
13483SOL    HW140627   3.857   6.757   1.862  1.0911 -0.8412 -0.0909
13483SOL    HW240628   3.759   6.670   1.764 -0.4821  1.0668 -0.2871
13484SOL     OW40629   7.703   6.954   6.907  1.0923  0.3486  0.3990
13484SOL    HW140630   7.755   6.959   6.992 -0.1557 -0.2783  1.2445
13484SOL    HW240631   7.606   6.971   6.927  0.6621 -0.6147 -0.7497
13485SOL     OW40632   8.462   4.361   1.258 -0.0025 -0.3044 -0.0493
13485SOL    HW140633   8.375   4.378   1.306 -1.2297 -1.3948 -1.7701
13485SOL    HW240634   8.538   4.385   1.318 -1.4454  2.9287  0.7346
13486SOL     OW40635   3.118   7.917   3.794 -0.0254 -0.3688 -0.2789
13486SOL    HW140636   3.071   7.900   3.881 -0.4072 -1.6559 -0.7124
13486SOL    HW240637   3.050   7.920   3.720  0.2653  1.0320 -0.5030
13487SOL     OW40638   4.386   2.982   7.965 -0.0829 -0.0151  0.1998
13487SOL    HW140639   4.374   2.914   7.894  0.6780 -0.4113  0.4379
13487SOL    HW240640   4.297   3.013   7.998 -0.4824 -1.9593  1.1056
13488SOL     OW40641   6.041   6.743   4.239 -0.0100  0.3617  0.1494
13488SOL    HW140642   6.019   6.836   4.269  1.0009  0.9898 -1.0049
13488SOL    HW240643   6.017   6.732   4.143 -1.2550 -0.9786  0.5766
13489SOL     OW40644   7.195   5.313   3.582 -0.2487  0.3108 -0.5641
13489SOL    HW140645   7.249   5.383   3.628  0.5005  0.1423 -1.1608
13489SOL    HW240646   7.128   5.356   3.523  0.2779  0.5323 -1.0068
13490SOL     OW40647   1.291   4.805   7.970  0.0351 -0.2537  0.0540
13490SOL    HW140648   1.221   4.865   7.931  0.6703 -0.2931 -1.1966
13490SOL    HW240649   1.338   4.757   7.896  2.2864  0.7521  0.7545
13491SOL     OW40650   7.189   5.000   0.416  0.5548  0.6383  0.3208
13491SOL    HW140651   7.113   5.064   0.416 -1.3828 -1.5355  0.4845
13491SOL    HW240652   7.253   5.024   0.489 -0.0732  2.3593  0.3482
13492SOL     OW40653   0.339   4.623   1.229  0.0283 -0.0404  0.0313
13492SOL    HW140654   0.375   4.685   1.299 -2.3963  0.9258  0.5363
13492SOL    HW240655   0.337   4.530   1.266  0.4659  0.1599  0.5834
13493SOL     OW40656   5.140   2.667   8.186  0.2696 -0.4413  0.1923
13493SOL    HW140657   5.137   2.650   8.285 -3.4787  2.4621  0.7748
13493SOL    HW240658   5.048   2.664   8.148  1.4831 -0.4886 -3.1034
13494SOL     OW40659   8.307   1.110   4.001 -0.3709 -0.0134 -0.3707
13494SOL    HW140660   8.297   1.054   3.918 -0.3506 -0.2716 -0.1997
13494SOL    HW240661   8.278   1.204   3.981  0.5185  0.1608 -0.9292
13495SOL     OW40662   4.876   8.075   1.705 -0.4785 -0.0552 -0.5057
13495SOL    HW140663   4.923   8.162   1.722  1.6812 -1.6482  2.5634
13495SOL    HW240664   4.780   8.084   1.731  0.4064  0.6581  3.0103
13496SOL     OW40665   6.585   3.619   4.158  0.1515 -0.1794 -0.0187
13496SOL    HW140666   6.619   3.543   4.102  1.5281  0.0256  0.4815
13496SOL    HW240667   6.486   3.612   4.169  0.2362 -1.8171 -0.1060
13497SOL     OW40668   1.883   6.907   2.770 -0.3554  0.5059 -0.0157
13497SOL    HW140669   1.836   6.877   2.853 -1.9513  0.9443 -0.7388
13497SOL    HW240670   1.927   6.829   2.727  0.4272  0.2536  1.1759
13498SOL     OW40671   1.975   3.878   8.297 -0.2816  0.1238  0.3486
13498SOL    HW140672   1.893   3.920   8.259 -0.6218  0.1618  1.1009
13498SOL    HW240673   1.952   3.788   8.335 -0.0202  0.2285  0.7627
13499SOL     OW40674   0.358   6.000   5.650 -0.1055 -0.0299  0.0396
13499SOL    HW140675   0.395   6.089   5.623  0.6229  0.2242  1.7750
13499SOL    HW240676   0.431   5.932   5.653 -0.4949 -0.4776 -0.3575
13500SOL     OW40677   6.992   1.366   6.531  0.2733  0.5639 -0.3121
13500SOL    HW140678   7.049   1.447   6.515  1.0544  0.3386  1.1266
13500SOL    HW240679   6.895   1.393   6.529  0.4385  1.0946 -2.0250
13501SOL     OW40680   0.985   7.610   5.072  0.2648  0.1325 -0.3083
13501SOL    HW140681   0.952   7.681   5.010 -2.2919  0.5208  1.3600
13501SOL    HW240682   0.945   7.522   5.048  0.2964  0.0333 -0.0097
13502SOL     OW40683   0.954   3.464   2.092  0.5946 -0.1254  0.1711
13502SOL    HW140684   1.016   3.388   2.071  1.6430  0.7034  0.1753
13502SOL    HW240685   0.886   3.472   2.019  0.2949 -1.2278  0.3060
13503SOL     OW40686   4.627   0.756   7.803 -0.0125  0.5805  0.4806
13503SOL    HW140687   4.686   0.811   7.745  0.6863 -1.3324 -0.7377
13503SOL    HW240688   4.546   0.809   7.830  0.0690  1.8080 -1.5175
13504SOL     OW40689   2.210   5.897   8.853  0.4552  0.4056 -0.5751
13504SOL    HW140690   2.305   5.868   8.864  0.4432  0.8291  0.7688
13504SOL    HW240691   2.183   5.885   8.757  2.1323  1.0986 -1.1789
13505SOL     OW40692   8.435   3.199   3.799  0.4302  0.4730 -0.5247
13505SOL    HW140693   8.458   3.206   3.896 -1.0366  0.3261 -0.1291
13505SOL    HW240694   8.487   3.266   3.746  2.5584 -0.6295  0.0913
13506SOL     OW40695   2.423   7.823   4.382 -0.2962  0.3235  0.2382
13506SOL    HW140696   2.403   7.904   4.326  1.2357 -0.1849 -1.1394
13506SOL    HW240697   2.440   7.850   4.476  0.2154  1.6347 -0.2097
13507SOL     OW40698   3.091   3.048   3.858 -0.1885  0.4656  0.0970
13507SOL    HW140699   3.012   3.047   3.919 -0.4013  0.6025 -0.1726
13507SOL    HW240700   3.175   3.039   3.911 -0.4580 -1.4746  0.2724
13508SOL     OW40701   6.716   0.450   3.154  0.2918 -0.0369 -0.0657
13508SOL    HW140702   6.719   0.533   3.099  1.0631 -1.2070 -1.8611
13508SOL    HW240703   6.718   0.475   3.251 -3.3431  2.1874 -0.3793
13509SOL     OW40704   8.068   4.553   5.873  0.3992 -0.0855  0.1904
13509SOL    HW140705   8.085   4.461   5.907  0.2988 -0.4696 -0.7582
13509SOL    HW240706   8.028   4.609   5.945  1.6863 -0.3931  1.1677
13510SOL     OW40707   1.903   4.746   5.194 -0.1386 -0.1171 -0.4511
13510SOL    HW140708   1.867   4.792   5.275 -1.5511 -0.2551 -0.9735
13510SOL    HW240709   1.944   4.813   5.132  1.9654 -0.1310  0.8343
13511SOL     OW40710   5.851   7.617   4.925  0.1757  0.1224  0.2471
13511SOL    HW140711   5.931   7.676   4.927 -0.2928  0.7607  0.8935
13511SOL    HW240712   5.772   7.669   4.891 -0.1751 -0.2092  0.5373
13512SOL     OW40713   3.642   8.173   8.770 -0.1511  0.1651 -0.5468
13512SOL    HW140714   3.563   8.233   8.785 -0.0149  0.1746  0.1764
13512SOL    HW240715   3.702   8.178   8.849  0.5214  0.0648 -1.0466
13513SOL     OW40716   6.194   0.028   2.844  0.1769  0.1285 -0.3927
13513SOL    HW140717   6.155   0.030   2.752 -0.0450  2.7011 -0.2968
13513SOL    HW240718   6.293   0.041   2.839  0.8392 -3.7009 -0.4389
13514SOL     OW40719   2.896   3.142   8.377 -0.4554  0.4635  0.3998
13514SOL    HW140720   2.830   3.166   8.306 -0.6384  0.6411  0.6284
13514SOL    HW240721   2.851   3.089   8.449  0.1432 -1.4344 -0.5567
13515SOL     OW40722   2.303   7.633   8.277  0.0559 -0.4767 -0.4934
13515SOL    HW140723   2.332   7.679   8.361 -2.9345 -0.7062  0.7695
13515SOL    HW240724   2.243   7.693   8.225 -0.1261 -1.2543 -1.2056
13516SOL     OW40725   6.447   1.895   3.796  0.0503  0.0980 -0.4689
13516SOL    HW140726   6.414   1.962   3.862  0.7484  0.4281 -0.4560
13516SOL    HW240727   6.371   1.833   3.772 -1.1149  1.9596 -1.8403
13517SOL     OW40728   7.540   1.066   6.243 -0.5207 -0.5419 -0.0348
13517SOL    HW140729   7.630   1.060   6.200 -0.8574  0.7518 -0.9718
13517SOL    HW240730   7.479   0.999   6.201 -0.9600  0.9684 -1.9417
13518SOL     OW40731   6.466   5.825   5.335  0.1716 -0.1662 -0.0791
13518SOL    HW140732   6.392   5.815   5.268  0.6542 -0.3584 -0.5895
13518SOL    HW240733   6.533   5.752   5.322 -0.6346 -1.3379  1.8134
13519SOL     OW40734   8.351   7.386   2.270  0.3214 -0.2918  0.2709
13519SOL    HW140735   8.434   7.331   2.257 -0.9362 -1.8517 -1.7263
13519SOL    HW240736   8.374   7.483   2.260  2.0875 -0.5953  0.9796
13520SOL     OW40737   5.356   0.473   1.714  0.2211  0.3894 -0.2532
13520SOL    HW140738   5.262   0.502   1.730  0.5371  1.7920 -0.7583
13520SOL    HW240739   5.360   0.420   1.629 -0.0015  1.0363 -0.6797
13521SOL     OW40740   3.752   1.718   6.164  0.0276 -0.4224 -0.1115
13521SOL    HW140741   3.672   1.772   6.192  0.2852  0.2220 -0.6082
13521SOL    HW240742   3.819   1.777   6.120  0.3374 -1.1423 -0.6235
13522SOL     OW40743   5.678   6.636   5.190  0.0559  0.2067  0.0482
13522SOL    HW140744   5.642   6.728   5.205  0.5581  0.3824  0.2143
13522SOL    HW240745   5.604   6.570   5.194 -0.3205  0.6109 -0.1365
13523SOL     OW40746   2.681   5.503   4.364  0.0071 -0.3778 -0.2704
13523SOL    HW140747   2.679   5.545   4.455  0.0549 -0.0324 -0.4272
13523SOL    HW240748   2.626   5.558   4.301 -1.8579 -1.7958  0.0485
13524SOL     OW40749   8.406   6.217   8.839 -0.0274 -0.3983 -0.0177
13524SOL    HW140750   8.473   6.218   8.914 -1.4523  2.0315  1.3697
13524SOL    HW240751   8.414   6.301   8.786 -0.6017 -1.0409 -1.1575
13525SOL     OW40752   0.264   3.351   1.708 -0.1992  0.2209 -0.3583
13525SOL    HW140753   0.341   3.371   1.648  0.4933  1.3721  0.8453
13525SOL    HW240754   0.287   3.275   1.768 -0.6676 -0.5399 -1.1151
13526SOL     OW40755   7.781   3.239   8.749  0.5027  0.0337 -0.1332
13526SOL    HW140756   7.781   3.337   8.728 -1.6814 -0.0918 -0.9970
13526SOL    HW240757   7.873   3.211   8.777  1.1392  2.3529  0.3440
13527SOL     OW40758   5.862   4.466   1.364 -0.3326 -0.5268  0.0325
13527SOL    HW140759   5.822   4.532   1.301 -1.0392 -0.4719  0.5179
13527SOL    HW240760   5.959   4.485   1.376 -0.6693  0.9072  0.7230
13528SOL     OW40761   8.832   5.895   2.342  0.2644  0.8910  0.0290
13528SOL    HW140762   8.756   5.880   2.279 -0.5008  2.7889  0.4133
13528SOL    HW240763   8.917   5.905   2.289  0.3359 -1.4590 -0.3876
13529SOL     OW40764   8.373   6.888   0.461  0.1899  0.1487 -0.0335
13529SOL    HW140765   8.336   6.950   0.530  2.7208  2.0866 -0.2693
13529SOL    HW240766   8.313   6.889   0.381 -2.2471 -1.3578  1.6044
13530SOL     OW40767   2.357   7.502   3.763  0.2098 -0.2639 -0.1967
13530SOL    HW140768   2.413   7.585   3.769  0.1836 -0.2381 -0.3079
13530SOL    HW240769   2.363   7.465   3.670 -0.2519 -0.0539 -0.3122
13531SOL     OW40770   2.183   5.363   2.214  0.3721 -0.0008  0.4425
13531SOL    HW140771   2.250   5.365   2.140 -0.4623  1.0345 -0.3170
13531SOL    HW240772   2.125   5.444   2.209  0.4725  0.2494  2.4171
13532SOL     OW40773   7.792   3.311   8.191 -0.3219 -0.5086 -0.3434
13532SOL    HW140774   7.693   3.321   8.202 -0.5454 -2.2691 -0.5334
13532SOL    HW240775   7.824   3.234   8.246  0.8867 -0.2041 -0.5980
13533SOL     OW40776   7.774   7.891   3.093 -0.1441  0.3598 -0.0535
13533SOL    HW140777   7.693   7.835   3.108 -0.4455  0.5182 -1.0524
13533SOL    HW240778   7.767   7.938   3.006  1.3370 -0.1667 -0.4893
13534SOL     OW40779   8.849   6.962   7.086 -0.6235  0.0084 -0.1212
13534SOL    HW140780   8.886   7.055   7.087  0.7113 -0.4957 -0.2666
13534SOL    HW240781   8.832   6.935   6.991 -0.8667  0.0551 -0.0899
13535SOL     OW40782   1.279   0.696   1.328  0.0070  0.4557 -0.4754
13535SOL    HW140783   1.333   0.630   1.274  1.0504  0.3055  0.7109
13535SOL    HW240784   1.324   0.712   1.415 -2.1178 -0.0118  0.7660
13536SOL     OW40785   7.374   7.349   6.570  0.2826 -0.2151 -0.1197
13536SOL    HW140786   7.420   7.433   6.597 -0.1558  0.3688 -1.1370
13536SOL    HW240787   7.305   7.369   6.501 -0.5618 -1.2728  0.3830
13537SOL     OW40788   1.845   1.952   5.508 -0.0976 -0.0544  0.4903
13537SOL    HW140789   1.767   1.946   5.446 -1.1030 -0.4412  1.7447
13537SOL    HW240790   1.840   2.037   5.561 -0.0136 -0.3697  1.0132
13538SOL     OW40791   1.324   7.326   1.020 -0.4687 -0.7422 -0.7405
13538SOL    HW140792   1.326   7.299   0.924  0.8244 -2.1223 -0.3701
13538SOL    HW240793   1.380   7.407   1.033 -3.6347  1.7843 -1.7135
13539SOL     OW40794   2.706   0.155   1.222  0.0532  0.2742 -0.0138
13539SOL    HW140795   2.747   0.134   1.311  0.0414 -1.1226 -0.3060
13539SOL    HW240796   2.717   0.252   1.202  0.1012  0.6014  1.4857
13540SOL     OW40797   4.635   0.842   3.105 -0.1310 -0.3212 -0.1694
13540SOL    HW140798   4.540   0.872   3.112 -0.0641 -0.4069  1.3346
13540SOL    HW240799   4.691   0.889   3.173  0.2618 -2.6354  1.2437
13541SOL     OW40800   6.723   6.509   8.368 -0.1651 -0.0119 -0.2452
13541SOL    HW140801   6.779   6.579   8.411 -1.3940  1.2396 -0.6244
13541SOL    HW240802   6.681   6.452   8.439 -0.9347  1.0588  0.1954
13542SOL     OW40803   3.623   6.457   8.456 -0.3647 -0.4049  1.3523
13542SOL    HW140804   3.626   6.408   8.369  0.8229 -2.1005  2.2633
13542SOL    HW240805   3.717   6.476   8.486 -0.7168 -0.6290  2.6536
13543SOL     OW40806   6.820   5.837   7.260  0.1606 -0.0777 -0.1243
13543SOL    HW140807   6.879   5.766   7.298  1.6980  0.7800 -0.8193
13543SOL    HW240808   6.843   5.853   7.164 -0.2825  1.2054 -0.0466
13544SOL     OW40809   0.897   0.758   8.831  0.4684  0.1056  0.0319
13544SOL    HW140810   0.861   0.849   8.810  2.3181  0.7595 -0.5357
13544SOL    HW240811   0.898   0.702   8.748  0.0219 -0.1881  0.2211
13545SOL     OW40812   8.615   3.755   5.881  0.4425 -0.5813  0.2598
13545SOL    HW140813   8.658   3.846   5.882 -0.3818 -0.1559 -0.6995
13545SOL    HW240814   8.517   3.765   5.900  0.3715 -1.2917  0.2771
13546SOL     OW40815   4.077   0.319   7.583 -0.1830 -0.1522  0.3287
13546SOL    HW140816   4.156   0.323   7.522 -1.0172 -1.3057 -0.8832
13546SOL    HW240817   4.060   0.409   7.622  1.5250  0.1810  0.3829
13547SOL     OW40818   0.391   4.194   0.959 -0.0965 -0.9388  0.4595
13547SOL    HW140819   0.434   4.104   0.948 -1.8773 -1.5218 -2.6986
13547SOL    HW240820   0.297   4.182   0.992 -0.3994 -0.2391 -0.1475
13548SOL     OW40821   2.698   0.472   1.146  0.0121  0.4643  0.6743
13548SOL    HW140822   2.761   0.539   1.108  0.9521 -0.9053 -0.3030
13548SOL    HW240823   2.705   0.473   1.246  1.4768  0.4722  0.5945
13549SOL     OW40824   6.319   4.718   3.474 -0.2333  0.2331 -0.1697
13549SOL    HW140825   6.228   4.725   3.516 -0.9577  0.9058 -1.7848
13549SOL    HW240826   6.367   4.640   3.513 -1.7121 -0.4591  0.3514
13550SOL     OW40827   5.963   4.475   4.018  0.8987  0.1567  0.8985
13550SOL    HW140828   6.001   4.459   3.927  0.1717  0.0202  0.6124
13550SOL    HW240829   6.020   4.542   4.066  0.9978  0.6228  0.1486
13551SOL     OW40830   6.661   0.956   4.171  0.5568  0.5701 -0.0059
13551SOL    HW140831   6.651   0.880   4.235 -0.3527 -0.8082 -1.7070
13551SOL    HW240832   6.572   1.000   4.157  0.8822  1.3109  0.1830
13552SOL     OW40833   8.124   2.378   3.525 -0.0160 -0.1185  0.2788
13552SOL    HW140834   8.169   2.464   3.503  0.7975 -0.2077  1.4764
13552SOL    HW240835   8.119   2.320   3.443  0.8380  0.4381 -0.1810
13553SOL     OW40836   7.607   3.559   3.885  0.3216  0.1111  0.4281
13553SOL    HW140837   7.593   3.601   3.795  1.0422  1.6274  0.9880
13553SOL    HW240838   7.704   3.541   3.899  0.1877 -0.3475  0.8116
13554SOL     OW40839   6.616   6.955   2.564  0.3126  0.1183 -0.2061
13554SOL    HW140840   6.687   7.019   2.536  2.0247 -2.1067 -1.1872
13554SOL    HW240841   6.557   6.934   2.486  0.6031 -0.5221 -0.2587
13555SOL     OW40842   5.886   3.176   0.798 -0.4849 -0.0950 -0.1263
13555SOL    HW140843   5.860   3.203   0.891  0.3043  0.3015 -0.0122
13555SOL    HW240844   5.840   3.091   0.774  0.9630 -1.3685  1.4303
13556SOL     OW40845   1.146   4.780   8.201 -0.2643 -0.0179  0.6726
13556SOL    HW140846   1.203   4.799   8.120 -0.8917  0.9063  0.4355
13556SOL    HW240847   1.139   4.681   8.214 -0.8174 -0.2166 -0.9080
13557SOL     OW40848   0.395   7.233   6.380 -0.3366  0.1179 -0.2221
13557SOL    HW140849   0.494   7.228   6.376 -0.3691 -0.8005 -0.0933
13557SOL    HW240850   0.357   7.228   6.287 -0.2174  2.1716 -0.4248
13558SOL     OW40851   6.751   4.343   6.261  0.0260 -0.0408  0.2278
13558SOL    HW140852   6.803   4.288   6.195  2.0539  0.2092  1.5338
13558SOL    HW240853   6.746   4.295   6.348  1.6858  1.6778  1.3482
13559SOL     OW40854   7.886   2.706   4.148  0.0905  0.6882  0.1491
13559SOL    HW140855   7.926   2.634   4.091 -0.0305  0.5516  0.2356
13559SOL    HW240856   7.791   2.682   4.170  0.2320  0.5937  0.6596
13560SOL     OW40857   8.848   2.890   0.629  0.2355 -0.0873  0.5101
13560SOL    HW140858   8.836   2.983   0.593 -0.4180 -0.4472 -0.2450
13560SOL    HW240859   8.763   2.861   0.673  0.9081  0.2062  2.0519
13561SOL     OW40860   1.156   4.530   7.038 -0.2616  0.0158 -0.1371
13561SOL    HW140861   1.185   4.626   7.038 -0.3739  0.0480  0.4264
13561SOL    HW240862   1.236   4.471   7.054 -0.7202  0.1823  3.4370
13562SOL     OW40863   7.614   8.365   6.486  0.7648 -0.5710 -0.1973
13562SOL    HW140864   7.599   8.269   6.466  1.0071 -0.5185 -0.6499
13562SOL    HW240865   7.692   8.399   6.433  1.0727 -0.2813  0.4253
13563SOL     OW40866   7.600   3.353   4.506 -0.0660  0.3633  0.4645
13563SOL    HW140867   7.632   3.260   4.526  0.3021  0.7678  1.8399
13563SOL    HW240868   7.666   3.419   4.543 -0.2218  1.1773 -0.6861
13564SOL     OW40869   4.437   1.693   5.542 -0.6660 -0.3458 -0.0869
13564SOL    HW140870   4.358   1.724   5.490 -1.9551 -0.4180  1.7396
13564SOL    HW240871   4.480   1.616   5.495  0.1377  1.4837 -2.5863
13565SOL     OW40872   6.943   4.100   4.435 -0.3556 -0.8216  0.1367
13565SOL    HW140873   6.995   4.185   4.429  0.4784 -1.3658 -0.6360
13565SOL    HW240874   6.849   4.117   4.407  0.3129 -0.5503 -2.1727
13566SOL     OW40875   3.553   0.574   3.375 -0.4445 -0.2514  0.4022
13566SOL    HW140876   3.534   0.561   3.278 -0.3059 -0.6366  0.4271
13566SOL    HW240877   3.470   0.555   3.428 -0.0802 -1.7110  0.4928
13567SOL     OW40878   3.244   0.517   6.238  0.0224 -0.1640 -0.4221
13567SOL    HW140879   3.233   0.420   6.258  0.0557 -0.1294 -0.2344
13567SOL    HW240880   3.302   0.559   6.308 -0.4229  0.0984 -0.2044
13568SOL     OW40881   1.239   0.575   2.871  0.1453  0.4872 -0.0875
13568SOL    HW140882   1.159   0.527   2.833  0.6631 -0.5541  0.1057
13568SOL    HW240883   1.322   0.539   2.830  0.5414  1.4604 -0.1724
13569SOL     OW40884   8.359   3.388   4.244 -0.6979 -0.7440 -0.1812
13569SOL    HW140885   8.420   3.459   4.280 -1.4776  0.3996 -1.0153
13569SOL    HW240886   8.307   3.347   4.319 -2.2836  1.5740  0.0845
13570SOL     OW40887   2.127   0.153   5.467 -0.2621  0.2425 -0.3617
13570SOL    HW140888   2.205   0.208   5.496 -0.7101  1.1497 -0.8414
13570SOL    HW240889   2.160   0.069   5.423  0.4481  0.6210 -0.5693
13571SOL     OW40890   1.179   1.046   5.239  0.5723  0.2357  0.4802
13571SOL    HW140891   1.079   1.051   5.244  0.5915  1.2520 -0.0559
13571SOL    HW240892   1.218   1.136   5.258  1.4627 -0.4519  2.1292
13572SOL     OW40893   7.581   4.316   7.320  0.1767  0.0021  0.1514
13572SOL    HW140894   7.621   4.268   7.399 -0.1050 -0.4294  0.0380
13572SOL    HW240895   7.574   4.413   7.341  3.1548  0.4798 -0.5604
13573SOL     OW40896   4.343   2.613   2.155 -0.1376  0.2559 -0.0280
13573SOL    HW140897   4.395   2.543   2.106  1.0152  0.5680  0.7158
13573SOL    HW240898   4.246   2.600   2.137  0.2327  0.5582 -2.6541
13574SOL     OW40899   1.340   0.480   5.998  0.0209 -0.4346 -0.2967
13574SOL    HW140900   1.392   0.414   6.052 -0.4021 -0.2325  0.3832
13574SOL    HW240901   1.402   0.536   5.944  0.3159 -2.5659 -2.3204
13575SOL     OW40902   6.001   5.615   5.318 -0.4203 -0.2731 -0.3201
13575SOL    HW140903   5.913   5.568   5.332 -2.1947  3.1713  1.2046
13575SOL    HW240904   6.056   5.607   5.401 -0.7503  0.4104 -0.0376
13576SOL     OW40905   3.070   4.451   3.773 -0.1097  0.0132  0.4466
13576SOL    HW140906   3.158   4.407   3.787  0.0801  0.2762  0.1137
13576SOL    HW240907   3.018   4.401   3.704  1.2498  1.8206 -2.0591
13577SOL     OW40908   3.664   7.881   3.917  0.1274  0.3802  0.1169
13577SOL    HW140909   3.660   7.848   4.012  2.4027 -1.3817 -0.3108
13577SOL    HW240910   3.586   7.845   3.866  1.4706 -2.9569  0.1699
13578SOL     OW40911   7.514   3.041   8.074  0.3700 -0.0300  0.5066
13578SOL    HW140912   7.497   3.072   8.168 -0.8181 -0.7039  0.5287
13578SOL    HW240913   7.433   2.995   8.039  0.0975  1.8443 -1.5430
13579SOL     OW40914   6.293   5.372   8.822  0.0042  1.0925  0.0457
13579SOL    HW140915   6.321   5.458   8.864 -0.2937  1.5033 -0.5882
13579SOL    HW240916   6.374   5.315   8.806  0.0246  0.3201  2.4223
13580SOL     OW40917   3.100   2.230   4.964  0.9098  0.0438 -0.3872
13580SOL    HW140918   3.084   2.264   4.872  2.3563  1.6404 -0.1111
13580SOL    HW240919   3.196   2.244   4.988  0.7593 -1.1599  1.0434
13581SOL     OW40920   3.161   8.420   1.216 -0.7839  0.0402 -0.6844
13581SOL    HW140921   3.155   8.413   1.117 -0.7196  1.9597 -0.8687
13581SOL    HW240922   3.239   8.478   1.241 -1.6930  0.8388  0.4134
13582SOL     OW40923   2.084   5.444   1.069 -0.1634 -0.2373 -0.5887
13582SOL    HW140924   2.182   5.432   1.085 -0.1789  1.1021  0.6496
13582SOL    HW240925   2.033   5.377   1.123  0.0402 -0.8847 -1.1744
13583SOL     OW40926   8.256   3.409   7.283 -0.0560 -0.0752 -0.4500
13583SOL    HW140927   8.183   3.475   7.264 -0.2607 -0.4082 -0.8478
13583SOL    HW240928   8.328   3.419   7.214  2.5315  3.3577  2.4039
13584SOL     OW40929   0.813   1.096   8.108 -0.5443 -0.3238  0.0349
13584SOL    HW140930   0.834   1.001   8.085  0.8839 -0.5160  1.8308
13584SOL    HW240931   0.813   1.107   8.208  2.2835  2.1008 -0.0812
13585SOL     OW40932   5.220   8.100   0.854  0.5314 -0.0617 -0.3411
13585SOL    HW140933   5.215   8.113   0.755 -0.5125 -1.6261 -0.5290
13585SOL    HW240934   5.189   8.008   0.877 -1.7215  1.1109  1.6649
13586SOL     OW40935   2.839   4.843   0.466 -0.2236  0.3710 -0.6290
13586SOL    HW140936   2.846   4.888   0.555  0.0275  0.4322 -0.6773
13586SOL    HW240937   2.743   4.828   0.443 -0.2873  0.3210 -0.3317
13587SOL     OW40938   1.032   7.821   1.567 -0.1085  0.1194 -0.7527
13587SOL    HW140939   1.042   7.920   1.561  1.4744  0.1094  1.0053
13587SOL    HW240940   1.116   7.781   1.602 -1.5859 -1.5878  1.0631
13588SOL     OW40941   6.779   6.756   2.341 -0.2174 -0.2932  0.4912
13588SOL    HW140942   6.740   6.675   2.295 -0.0849 -0.8259  1.2992
13588SOL    HW240943   6.775   6.743   2.440 -0.7163  0.9423  0.6539
13589SOL     OW40944   5.950   5.061   7.902 -0.1410  0.1484  0.4780
13589SOL    HW140945   6.019   5.052   7.975  1.1842 -2.3257 -0.9562
13589SOL    HW240946   5.941   4.975   7.853 -1.3562  1.5562 -1.9971
13590SOL     OW40947   1.558   6.696   3.195  0.4343  0.0106  0.7338
13590SOL    HW140948   1.483   6.634   3.173 -0.2984  1.2492 -0.3911
13590SOL    HW240949   1.645   6.645   3.191 -0.2513 -1.2733  1.3603
13591SOL     OW40950   7.764   0.971   3.534 -0.2868 -0.0945 -0.0418
13591SOL    HW140951   7.709   1.051   3.511  0.5519  0.2208 -0.9836
13591SOL    HW240952   7.782   0.971   3.632 -2.1798 -0.3557  0.3577
13592SOL     OW40953   6.536   2.879   2.080  0.2432 -0.7793  0.1240
13592SOL    HW140954   6.596   2.853   2.156 -0.1254 -2.2811 -0.0556
13592SOL    HW240955   6.456   2.927   2.116 -1.2790 -3.7555  1.1180
13593SOL     OW40956   7.935   6.151   6.179 -0.6751  0.7614 -0.1592
13593SOL    HW140957   8.006   6.188   6.240  0.0061 -0.8260  0.0631
13593SOL    HW240958   7.965   6.063   6.143 -2.3327  0.2867 -0.4633
13594SOL     OW40959   8.615   5.179   5.955 -0.3070 -0.0480  0.0077
13594SOL    HW140960   8.551   5.126   5.900  0.3472  0.5589 -1.4044
13594SOL    HW240961   8.677   5.117   6.004  0.9043 -0.6694 -2.1550
13595SOL     OW40962   7.123   1.151   3.205 -0.1694  0.2039 -0.2684
13595SOL    HW140963   7.113   1.248   3.182  0.8502 -0.0983 -2.1453
13595SOL    HW240964   7.214   1.134   3.243  0.1852 -0.2308 -1.2785
13596SOL     OW40965   3.085   4.544   8.532 -0.1929 -0.2351  0.1999
13596SOL    HW140966   3.104   4.559   8.435  0.0909 -1.2464  0.0877
13596SOL    HW240967   3.170   4.546   8.583 -0.2550 -0.4510  0.3144
13597SOL     OW40968   2.089   5.851   8.611  0.3020 -0.8177  0.1331
13597SOL    HW140969   2.094   5.898   8.524  0.1921 -0.9379  0.0611
13597SOL    HW240970   1.994   5.844   8.641  0.1854 -2.0614 -0.4505
13598SOL     OW40971   6.722   1.381   5.624  0.0760 -0.5078  0.6184
13598SOL    HW140972   6.623   1.370   5.618  0.2235 -1.7338 -0.0368
13598SOL    HW240973   6.747   1.477   5.611 -0.9522 -0.3606 -0.3569
13599SOL     OW40974   2.157   3.298   4.391  0.1987  0.0211  0.1404
13599SOL    HW140975   2.070   3.292   4.342 -0.8419  0.8815  1.8046
13599SOL    HW240976   2.232   3.287   4.326 -1.1237 -0.3180 -1.4046
13600SOL     OW40977   7.158   0.119   5.334  0.2894 -0.0978  0.4034
13600SOL    HW140978   7.215   0.114   5.251 -1.0159 -1.4572 -0.4557
13600SOL    HW240979   7.088   0.189   5.322  0.2087 -0.1725  0.4450
13601SOL     OW40980   0.896   4.167   0.279  0.6326 -0.1354  0.4268
13601SOL    HW140981   0.806   4.125   0.263 -0.9109  2.9674  0.2608
13601SOL    HW240982   0.926   4.213   0.195  1.1256  1.0369  1.2274
13602SOL     OW40983   0.610   6.977   4.290  0.2665 -0.4018  0.3469
13602SOL    HW140984   0.679   6.989   4.361 -1.3923 -1.9158  2.3579
13602SOL    HW240985   0.586   7.066   4.250  2.0700  0.3360  0.8507
13603SOL     OW40986   3.810   8.362   4.862  0.1715 -0.1955 -0.3262
13603SOL    HW140987   3.849   8.409   4.942  0.7313  0.6445 -1.0805
13603SOL    HW240988   3.866   8.283   4.839 -0.4198 -0.8974  0.5645
13604SOL     OW40989   1.729   2.531   6.197  0.1209  0.4732 -0.5657
13604SOL    HW140990   1.671   2.487   6.266 -0.9849  1.5149 -0.7956
13604SOL    HW240991   1.801   2.583   6.241  1.1744 -1.1657 -0.2802
13605SOL     OW40992   1.451   2.263   5.599 -0.8007 -0.5272  0.6264
13605SOL    HW140993   1.423   2.345   5.549 -0.5085 -0.8755 -0.1099
13605SOL    HW240994   1.521   2.288   5.667 -0.6223 -0.1837  0.3199
13606SOL     OW40995   5.881   5.706   0.791 -0.6688 -0.3159 -0.1460
13606SOL    HW140996   5.969   5.661   0.808  0.0128  0.8146 -0.5925
13606SOL    HW240997   5.817   5.639   0.752 -0.5465 -1.5669  1.6635
13607SOL     OW40998   4.923   6.071   3.647 -0.5137 -0.0021 -0.6950
13607SOL    HW140999   4.826   6.049   3.635 -0.8402  1.6919 -1.4222
13607SOL    HW241000   4.936   6.170   3.645  1.2057 -0.1829 -0.2915
13608SOL     OW41001   1.929   1.815   3.737 -0.8614  0.2444 -0.2686
13608SOL    HW141002   1.920   1.762   3.653 -0.0658 -0.9546  0.3573
13608SOL    HW241003   1.864   1.780   3.805 -0.6254  0.3483  0.0120
13609SOL     OW41004   4.565   2.699   5.239  0.2188  0.9659  0.5336
13609SOL    HW141005   4.527   2.609   5.261 -0.7523  1.2086 -0.1036
13609SOL    HW241006   4.644   2.688   5.179  1.2423  0.4538  1.9148
13610SOL     OW41007   2.263   0.254   4.939 -0.1567 -0.6302 -0.3186
13610SOL    HW141008   2.221   0.298   4.860 -0.5888  2.0418  1.2945
13610SOL    HW241009   2.214   0.280   5.022  2.4256 -0.4191  1.2559
13611SOL     OW41010   6.548   8.271   5.129 -0.3010  0.4697  0.5762
13611SOL    HW141011   6.473   8.208   5.109 -0.2605  0.6076 -0.0295
13611SOL    HW241012   6.634   8.220   5.130 -0.0499  0.7618 -1.6378
13612SOL     OW41013   4.269   5.546   6.565  0.2093 -0.1264 -0.1463
13612SOL    HW141014   4.366   5.568   6.556 -0.1537  1.0739 -1.4705
13612SOL    HW241015   4.256   5.447   6.560  1.3846 -0.3277  0.4694
13613SOL     OW41016   4.050   8.030   3.977  0.3105 -0.1410 -0.0145
13613SOL    HW141017   4.109   7.951   3.966 -1.4311 -1.4586 -0.4242
13613SOL    HW241018   4.087   8.108   3.926  0.1774 -1.7919 -2.8040
13614SOL     OW41019   1.494   3.278   3.760  0.1693  0.0795  0.4545
13614SOL    HW141020   1.454   3.209   3.820 -0.4293  0.3845  0.4099
13614SOL    HW241021   1.441   3.362   3.766  1.1541  0.7026  0.8701
13615SOL     OW41022   2.260   5.250   2.592  0.3930 -0.3019 -0.2619
13615SOL    HW141023   2.167   5.281   2.571  0.4676  0.3655  0.3730
13615SOL    HW241024   2.260   5.197   2.676  0.5824 -0.3464 -0.2888
13616SOL     OW41025   7.297   0.129   4.798  0.3711  0.0847  0.0034
13616SOL    HW141026   7.380   0.077   4.778 -0.8136 -1.6129 -0.7175
13616SOL    HW241027   7.226   0.105   4.733 -1.1263  0.4756  1.4164
13617SOL     OW41028   7.962   1.564   2.716 -0.0987  0.0320 -0.1350
13617SOL    HW141029   7.900   1.530   2.787 -0.3070 -0.1756 -0.4149
13617SOL    HW241030   7.963   1.664   2.717 -0.7565  0.0426 -0.4036
13618SOL     OW41031   2.723   2.106   4.337  0.2231 -0.2729  0.3783
13618SOL    HW141032   2.772   2.153   4.410 -0.8608 -1.3069  1.8297
13618SOL    HW241033   2.786   2.044   4.289  1.1599  1.0876 -0.2032
13619SOL     OW41034   4.314   0.371   3.199 -0.1336  0.4435 -0.1362
13619SOL    HW141035   4.401   0.322   3.211 -0.3572  0.0366 -0.1333
13619SOL    HW241036   4.245   0.307   3.164  0.3797  1.4927 -3.3341
13620SOL     OW41037   3.117   6.855   7.745  0.9254 -0.4749 -0.2411
13620SOL    HW141038   3.097   6.946   7.780  0.5439  0.3483 -2.4858
13620SOL    HW241039   3.177   6.861   7.665 -2.3208 -1.7654 -3.0456
13621SOL     OW41040   3.726   3.146   4.112 -0.5195  0.2635  0.3041
13621SOL    HW141041   3.806   3.097   4.075 -1.1714  0.7265 -1.8698
13621SOL    HW241042   3.751   3.191   4.198  1.4665  0.1287 -0.1576
13622SOL     OW41043   8.295   3.276   2.032 -0.4106  0.0867  0.3316
13622SOL    HW141044   8.314   3.194   1.978 -0.3007  0.6684 -0.5272
13622SOL    HW241045   8.223   3.329   1.988 -1.0929  0.0324  1.3397
13623SOL     OW41046   6.342   4.256   3.322 -0.5080  0.1025 -0.0037
13623SOL    HW141047   6.253   4.225   3.287 -0.1020  1.1666 -2.2190
13623SOL    HW241048   6.401   4.279   3.244  1.2840  0.5843  1.4449
13624SOL     OW41049   7.610   6.108   6.017 -0.1519 -0.2990 -0.0740
13624SOL    HW141050   7.510   6.104   6.012 -0.1364 -0.9702  0.0288
13624SOL    HW241051   7.637   6.139   6.108 -0.2595 -1.8857  0.5445
13625SOL     OW41052   7.194   0.102   8.782 -0.0437  0.3246  0.1432
13625SOL    HW141053   7.202   0.003   8.780  0.6487  0.3297  1.5950
13625SOL    HW241054   7.279   0.144   8.750  0.0555  0.4313  0.5324
13626SOL     OW41055   8.302   7.182   1.518  0.5694 -0.0224  0.4503
13626SOL    HW141056   8.354   7.105   1.480 -0.2291 -1.4270  2.0782
13626SOL    HW241057   8.349   7.217   1.599 -0.9449 -1.3364  1.9664
13627SOL     OW41058   7.095   3.878   3.477 -0.2087  0.3706  0.1849
13627SOL    HW141059   7.075   3.909   3.570 -1.2262 -1.0880  0.4895
13627SOL    HW241060   7.022   3.906   3.415 -0.1609  0.2486  0.0716
13628SOL     OW41061   5.638   5.070   8.485  0.4727  0.7404 -0.6397
13628SOL    HW141062   5.714   5.116   8.530  0.5143  0.1840 -0.1237
13628SOL    HW241063   5.581   5.137   8.438  0.6303  1.2888 -0.0584
13629SOL     OW41064   3.521   5.736   2.356 -0.0954 -0.5209  0.1458
13629SOL    HW141065   3.472   5.745   2.269 -1.4495  0.2553  0.9552
13629SOL    HW241066   3.618   5.759   2.342 -0.6648  1.5824 -0.7767
13630SOL     OW41067   4.929   6.445   3.073  0.1159 -0.0759 -0.4585
13630SOL    HW141068   4.907   6.400   3.160  0.7244 -1.6398 -1.0781
13630SOL    HW241069   4.985   6.384   3.017  0.1509  1.0979 -1.7618
13631SOL     OW41070   1.998   7.781   5.041 -0.1850 -0.1470  0.2670
13631SOL    HW141071   2.039   7.692   5.019 -0.2934 -0.4938  1.3744
13631SOL    HW241072   1.907   7.766   5.081 -0.6824  0.5297 -0.5919
13632SOL     OW41073   7.356   0.904   8.570 -0.2049 -0.7636 -0.5966
13632SOL    HW141074   7.351   0.847   8.488  0.5717 -1.8536  0.0915
13632SOL    HW241075   7.355   0.846   8.651 -1.0726  0.2988  0.1959
13633SOL     OW41076   6.489   7.838   3.253 -0.1368 -0.2203 -0.1056
13633SOL    HW141077   6.508   7.911   3.187  0.7400  0.4208  0.8139
13633SOL    HW241078   6.439   7.764   3.208  0.4967  0.1594 -1.5032
13634SOL     OW41079   3.442   5.885   2.577 -0.2509 -0.0591 -0.5509
13634SOL    HW141080   3.391   5.829   2.642 -1.3187  1.0620 -0.3863
13634SOL    HW241081   3.482   5.826   2.507 -0.2066 -1.1449  0.3630
13635SOL     OW41082   2.127   7.251   1.422 -0.3922  0.6909 -0.0565
13635SOL    HW141083   2.141   7.211   1.331 -3.4537 -0.2640 -0.2102
13635SOL    HW241084   2.032   7.279   1.432 -0.0730  1.0698  2.7656
13636SOL     OW41085   8.407   5.348   4.325  0.4377 -0.4413 -0.0861
13636SOL    HW141086   8.402   5.251   4.347 -0.5518 -0.4806 -0.4304
13636SOL    HW241087   8.425   5.359   4.227 -1.1505 -0.3043 -0.3882
13637SOL     OW41088   5.014   4.656   6.675  0.6079  0.0158  0.0985
13637SOL    HW141089   5.035   4.682   6.770  0.8564  0.7526 -0.1560
13637SOL    HW241090   5.089   4.683   6.616 -0.6021  1.7957 -0.6840
13638SOL     OW41091   5.265   7.947   7.963  0.1461  0.0464  0.1577
13638SOL    HW141092   5.185   7.946   8.023  0.9585  2.0480  1.3955
13638SOL    HW241093   5.348   7.958   8.019  0.9997  1.3729 -1.2649
13639SOL     OW41094   6.386   4.862   4.993 -0.1707  0.1832 -0.3110
13639SOL    HW141095   6.471   4.898   4.955  0.1482  0.4561  0.6224
13639SOL    HW241096   6.313   4.929   4.983 -0.6697 -0.5844 -2.3840
13640SOL     OW41097   5.135   1.530   6.382  0.4900  0.0053 -0.6208
13640SOL    HW141098   5.112   1.481   6.298  1.3963  0.5097 -1.1910
13640SOL    HW241099   5.058   1.587   6.410 -0.9606 -2.3812  0.5904
13641SOL     OW41100   7.329   6.168   5.992  0.6091  0.1887  0.7605
13641SOL    HW141101   7.283   6.135   6.074 -2.3363 -0.0423 -0.8691
13641SOL    HW241102   7.324   6.268   5.989  1.3642  0.2517  1.1584
13642SOL     OW41103   7.851   5.687   7.645  0.1331  0.6799  0.0674
13642SOL    HW141104   7.839   5.589   7.632 -0.9691  0.9518 -1.1598
13642SOL    HW241105   7.802   5.716   7.727 -0.3180  0.3537 -0.0881
13643SOL     OW41106   5.471   7.658   5.220 -0.8572  0.0097 -0.0430
13643SOL    HW141107   5.525   7.728   5.173 -1.3619  0.9966  0.8016
13643SOL    HW241108   5.432   7.595   5.153  1.0294 -0.5301 -0.7022
13644SOL     OW41109   8.505   5.787   1.361 -0.2667 -0.3483  0.2058
13644SOL    HW141110   8.471   5.693   1.355 -0.1820 -0.3001 -3.8198
13644SOL    HW241111   8.605   5.786   1.360 -0.1735 -0.1798  2.6472
13645SOL     OW41112   8.077   0.945   1.974 -0.3339  0.6276 -0.2609
13645SOL    HW141113   8.041   0.997   2.051  1.0759  2.0421 -0.5164
13645SOL    HW241114   8.167   0.908   1.998  0.2245  1.2753 -1.2873
13646SOL     OW41115   3.409   6.726   1.831  0.2965 -0.1472 -0.5799
13646SOL    HW141116   3.493   6.754   1.784 -0.0880 -0.0702 -1.2306
13646SOL    HW241117   3.403   6.772   1.919 -0.1693  1.6283 -1.4874
13647SOL     OW41118   2.986   6.141   8.383 -0.0736  0.0694 -0.0039
13647SOL    HW141119   3.051   6.068   8.405  0.0798  0.2163  0.0354
13647SOL    HW241120   3.030   6.230   8.399 -0.3207  0.1681  0.1208
13648SOL     OW41121   6.251   0.220   5.672 -0.2657  0.3644  0.0181
13648SOL    HW141122   6.240   0.301   5.729  0.4844  0.6115 -0.1726
13648SOL    HW241123   6.178   0.155   5.691 -0.1300  0.5217  1.1412
13649SOL     OW41124   7.427   8.369   4.171  0.5232 -0.2631 -0.3550
13649SOL    HW141125   7.498   8.301   4.151  1.8068  0.3133  1.8462
13649SOL    HW241126   7.338   8.324   4.175  1.2537 -1.7422  0.4128
13650SOL     OW41127   5.862   3.879   1.750 -0.3111  0.5992 -1.1796
13650SOL    HW141128   5.813   3.939   1.687  0.0165  3.5809  1.2093
13650SOL    HW241129   5.950   3.920   1.774 -0.9368  0.2852  2.1407
13651SOL     OW41130   5.374   4.258   6.711  0.2949  0.2312  0.0506
13651SOL    HW141131   5.391   4.169   6.670 -0.3812 -0.1415  0.5613
13651SOL    HW241132   5.294   4.253   6.771 -0.5516  1.4934 -0.9108
13652SOL     OW41133   7.131   1.587   4.093  0.5863  0.2993 -0.3147
13652SOL    HW141134   7.125   1.607   4.190  2.0809 -0.5115 -0.0177
13652SOL    HW241135   7.150   1.672   4.042  1.5422  0.4830  0.3148
13653SOL     OW41136   4.054   0.051   4.724  0.1641  0.3655 -0.1245
13653SOL    HW141137   3.981  -0.007   4.689 -0.8674  1.6801 -0.2401
13653SOL    HW241138   4.133  -0.005   4.750 -1.3598 -1.2215  1.2370
13654SOL     OW41139   6.129   3.494   2.769 -0.5523 -0.6480  0.2749
13654SOL    HW141140   6.157   3.572   2.824 -1.8169  0.0374 -0.0088
13654SOL    HW241141   6.077   3.526   2.689  1.1745 -1.6057 -1.3339
13655SOL     OW41142   6.092   7.023   8.855  0.1311 -0.0229  0.0128
13655SOL    HW141143   6.042   7.022   8.942 -0.6867  1.7705 -0.3771
13655SOL    HW241144   6.172   7.083   8.865  1.0556 -1.2233  0.0188
13656SOL     OW41145   8.859   2.608   5.811  0.0574  0.3345 -0.0341
13656SOL    HW141146   8.947   2.594   5.765  0.6734  2.2158  0.4758
13656SOL    HW241147   8.795   2.652   5.749 -0.2642 -0.2666 -0.1387
13657SOL     OW41148   0.236   7.692   8.118  0.0950 -0.2668 -0.6572
13657SOL    HW141149   0.334   7.707   8.122 -0.1573  1.9796 -1.4983
13657SOL    HW241150   0.198   7.697   8.210  0.7203 -0.9088 -0.3559
13658SOL     OW41151   4.293   2.191   0.583  0.0683  0.0013  0.0662
13658SOL    HW141152   4.317   2.111   0.639  2.3706  0.1196 -0.6627
13658SOL    HW241153   4.363   2.261   0.594 -1.1265  1.3378 -0.5117
13659SOL     OW41154   0.258   6.933   6.884 -0.0476  0.3865  0.6264
13659SOL    HW141155   0.215   6.891   6.804 -1.2740  1.2570  0.7966
13659SOL    HW241156   0.357   6.939   6.870 -0.3220  1.3454 -1.2305
13660SOL     OW41157   5.506   6.287   7.819  0.0033 -0.2023  0.1341
13660SOL    HW141158   5.583   6.286   7.883  1.3833  1.6849 -1.3582
13660SOL    HW241159   5.477   6.382   7.804 -2.4496 -0.8454  0.3795
13661SOL     OW41160   4.490   5.688   4.082 -0.6342 -0.1063  0.1700
13661SOL    HW141161   4.552   5.767   4.084  0.3342 -0.7122 -2.5219
13661SOL    HW241162   4.396   5.720   4.071 -0.1562  0.7202 -2.0308
13662SOL     OW41163   5.178   0.120   0.605  0.3158 -0.1654  0.4622
13662SOL    HW141164   5.115   0.190   0.569 -2.5240 -1.4665  2.4718
13662SOL    HW241165   5.186   0.045   0.539 -0.6451 -0.1722  0.3353
13663SOL     OW41166   5.127   8.387   4.739 -0.4615  0.0429  0.3316
13663SOL    HW141167   5.208   8.436   4.709 -2.1927  1.9032 -1.5859
13663SOL    HW241168   5.109   8.407   4.836  0.9708  0.1249  0.5898
13664SOL     OW41169   1.982   4.385   7.969  0.4103  0.1011 -0.1228
13664SOL    HW141170   2.020   4.331   8.045  0.9541 -0.4108 -0.7477
13664SOL    HW241171   1.883   4.371   7.965  0.2194  0.8901  1.0791
13665SOL     OW41172   3.749   0.621   1.118 -0.5234 -0.3500 -0.1840
13665SOL    HW141173   3.822   0.679   1.082  0.3448 -1.9530 -1.1462
13665SOL    HW241174   3.690   0.593   1.043 -1.1290 -0.4475  0.3254
13666SOL     OW41175   4.042   5.849   4.409 -0.0945 -0.7883 -0.2430
13666SOL    HW141176   4.031   5.948   4.416  1.1379 -0.6725  0.3923
13666SOL    HW241177   3.952   5.805   4.411 -0.6379  0.2882 -0.1127
13667SOL     OW41178   5.381   6.966   0.229  0.4490 -0.3974 -0.2217
13667SOL    HW141179   5.314   6.936   0.297  1.6975 -0.2457  1.1080
13667SOL    HW241180   5.353   6.933   0.138 -2.5097  1.3528 -0.0823
13668SOL     OW41181   3.499   5.445   8.103  0.1495 -0.2234 -0.1048
13668SOL    HW141182   3.413   5.423   8.057  0.2160 -0.4169 -0.1374
13668SOL    HW241183   3.564   5.481   8.036 -0.0181  0.2368 -0.0204
13669SOL     OW41184   7.627   4.855   5.388 -0.5662  0.7741 -0.3242
13669SOL    HW141185   7.683   4.772   5.379 -0.5649  0.3408  2.6951
13669SOL    HW241186   7.656   4.906   5.468 -2.0169  2.5949 -0.8962
13670SOL     OW41187   0.509   7.988   5.943  0.0712 -0.3326  0.1030
13670SOL    HW141188   0.585   7.927   5.923  0.3972  0.3275 -0.7739
13670SOL    HW241189   0.477   8.030   5.857 -0.0203  0.8559  0.6982
13671SOL     OW41190   4.755   6.328   2.467 -0.2923  0.3036 -0.8099
13671SOL    HW141191   4.674   6.351   2.413  0.1623 -0.3978 -1.8198
13671SOL    HW241192   4.737   6.349   2.564 -1.2877  1.1405 -1.1534
13672SOL     OW41193   4.723   7.381   2.239 -0.0433 -0.1087  0.1149
13672SOL    HW141194   4.703   7.343   2.330  1.0537 -1.0340 -0.0037
13672SOL    HW241195   4.645   7.366   2.179 -0.2126 -0.8392  0.5005
13673SOL     OW41196   7.352   6.907   0.752  0.1467 -0.0225 -0.4500
13673SOL    HW141197   7.419   6.971   0.713  1.0087 -0.4222  0.3498
13673SOL    HW241198   7.260   6.934   0.723  0.5194  1.3992 -0.3793
13674SOL     OW41199   1.856   1.499   4.972 -0.0692  0.1371 -0.4912
13674SOL    HW141200   1.795   1.524   4.897  1.6301 -0.2141 -2.0712
13674SOL    HW241201   1.947   1.479   4.935  0.8694  0.1126  1.7076
13675SOL     OW41202   7.080   5.401   6.647 -0.2635 -0.3800  0.1887
13675SOL    HW141203   7.122   5.336   6.711 -1.3679 -0.6969  0.6230
13675SOL    HW241204   7.050   5.482   6.696  1.1443  0.5032 -0.3613
13676SOL     OW41205   5.502   1.966   6.784 -0.2832  0.6191 -0.0576
13676SOL    HW141206   5.476   2.022   6.705 -0.5846 -0.4444 -0.7382
13676SOL    HW241207   5.507   2.023   6.866 -0.6914  1.6081 -0.7067
13677SOL     OW41208   1.187   7.879   6.563  0.4327  0.2108  0.0272
13677SOL    HW141209   1.106   7.928   6.529  1.0560  0.8013 -0.6444
13677SOL    HW241210   1.188   7.787   6.525  0.2121  0.2927 -0.1849
13678SOL     OW41211   2.305   8.204   6.643  0.3405  0.0294  0.1365
13678SOL    HW141212   2.404   8.187   6.640  0.6026  0.8727  2.1545
13678SOL    HW241213   2.260   8.131   6.694 -0.2823 -0.9231 -1.6835
13679SOL     OW41214   1.019   3.044   8.513  0.0395 -0.2716  0.2137
13679SOL    HW141215   1.026   2.954   8.470 -3.3810 -0.9297  0.7071
13679SOL    HW241216   1.029   3.035   8.612  0.8717  0.1136  0.1725
13680SOL     OW41217   8.716   2.498   4.470 -0.3366  0.4080  0.0246
13680SOL    HW141218   8.639   2.529   4.526 -0.1617 -0.2373  0.6327
13680SOL    HW241219   8.780   2.447   4.526  0.8746  1.4851 -0.3409
13681SOL     OW41220   6.648   4.512   4.749  0.1843  0.2396  0.4203
13681SOL    HW141221   6.661   4.421   4.789 -0.3460 -0.8513 -1.7397
13681SOL    HW241222   6.574   4.509   4.682  0.1966  2.2723  0.2468
13682SOL     OW41223   0.363   4.757   0.021 -0.5447  0.3052 -0.0992
13682SOL    HW141224   0.265   4.773   0.016 -1.3593 -2.9230  2.2259
13682SOL    HW241225   0.394   4.707  -0.060 -0.5704  1.8966 -1.1537
13683SOL     OW41226   6.890   6.398   7.189  0.3412 -0.4923  0.7188
13683SOL    HW141227   6.862   6.448   7.271 -0.8699 -2.3031  1.4620
13683SOL    HW241228   6.988   6.382   7.191  0.5004  0.4707  1.2294
13684SOL     OW41229   6.777   2.851   6.276  0.4316  0.6210  0.1730
13684SOL    HW141230   6.709   2.806   6.333  0.4983  1.5283  0.9924
13684SOL    HW241231   6.759   2.831   6.179 -0.6330  0.3780  0.4162
13685SOL     OW41232   0.591   4.032   5.532  0.2436  0.3579  0.5091
13685SOL    HW141233   0.632   4.001   5.446 -1.2600 -2.5701  0.7298
13685SOL    HW241234   0.663   4.052   5.598  1.3926 -0.4699 -0.4534
13686SOL     OW41235   4.756   6.915   4.287  0.2248 -0.5484 -0.1349
13686SOL    HW141236   4.791   6.866   4.367 -2.6757  1.5667  2.6709
13686SOL    HW241237   4.658   6.899   4.278 -0.0046  1.3371 -1.7026
13687SOL     OW41238   1.249   2.887   0.030 -0.3255 -0.1161 -0.4925
13687SOL    HW141239   1.212   2.895   0.123 -0.2759 -0.2087 -0.4658
13687SOL    HW241240   1.257   2.978  -0.010  1.6123  0.1227  0.3426
13688SOL     OW41241   6.728   0.406   5.317 -0.4571 -0.4698 -0.3063
13688SOL    HW141242   6.818   0.449   5.307 -0.8321  0.1371 -1.2532
13688SOL    HW241243   6.722   0.360   5.405  0.1923  0.8909  0.4733
13689SOL     OW41244   5.834   2.271   8.762  0.3627  0.6029  0.0971
13689SOL    HW141245   5.856   2.175   8.744  0.4583  0.8508 -1.2260
13689SOL    HW241246   5.906   2.330   8.724 -0.4305  1.2525 -0.4413
13690SOL     OW41247   2.817   4.595   5.015 -0.3213  0.4934 -0.3679
13690SOL    HW141248   2.791   4.687   4.984 -1.1546  0.5789  0.5234
13690SOL    HW241249   2.896   4.563   4.963 -0.2623  1.5582 -0.9588
13691SOL     OW41250   5.113   5.876   0.977 -0.1112 -0.3794 -0.2534
13691SOL    HW141251   5.055   5.943   1.022 -0.9265 -0.2397 -1.4546
13691SOL    HW241252   5.150   5.812   1.045  0.8360  1.3550  0.9342
13692SOL     OW41253   7.845   3.130   8.384  0.0811  0.0351  0.4083
13692SOL    HW141254   7.931   3.116   8.433 -0.1664 -1.3910  0.4842
13692SOL    HW241255   7.777   3.064   8.417 -0.5351  0.0289 -0.8260
13693SOL     OW41256   0.340   6.705   4.789 -0.1627 -0.4688  0.0424
13693SOL    HW141257   0.267   6.647   4.753  0.6275 -1.8428  0.5621
13693SOL    HW241258   0.338   6.704   4.889 -0.1339  0.4266  0.0648
13694SOL     OW41259   5.327   4.991   3.105 -0.0180 -0.0993 -0.6538
13694SOL    HW141260   5.405   4.975   3.166  0.5692  0.4283 -1.2481
13694SOL    HW241261   5.258   4.919   3.119 -0.3691  0.5746  1.3600
13695SOL     OW41262   2.842   7.774   0.158  0.0692 -0.3094 -0.3095
13695SOL    HW141263   2.922   7.743   0.108 -0.0701  0.9457 -1.3444
13695SOL    HW241264   2.863   7.858   0.208 -0.2869 -0.5910  0.3288
13696SOL     OW41265   0.116   8.232   2.857 -0.2109 -0.2459  0.0355
13696SOL    HW141266   0.039   8.256   2.916 -0.7580 -0.7728 -0.4454
13696SOL    HW241267   0.083   8.179   2.779  0.9575 -3.0568  1.2743
13697SOL     OW41268   2.525   6.107   2.610  0.2399  0.0868 -0.2314
13697SOL    HW141269   2.586   6.049   2.557 -1.2675 -1.1410 -0.6555
13697SOL    HW241270   2.549   6.203   2.594  0.1705 -0.2602 -2.7097
13698SOL     OW41271   7.582   1.206   3.110 -0.0124  0.5240  0.1049
13698SOL    HW141272   7.508   1.189   3.044 -2.4479 -1.9116  3.1193
13698SOL    HW241273   7.555   1.282   3.170 -0.3351 -0.6291  1.4633
13699SOL     OW41274   8.641   2.761   3.199  0.1911 -0.3701 -0.1532
13699SOL    HW141275   8.571   2.751   3.269 -0.4624 -0.3867 -0.8052
13699SOL    HW241276   8.701   2.681   3.200 -0.0894 -0.5787  0.0861
13700SOL     OW41277   8.410   7.068   2.845 -0.2397  0.1612 -0.3073
13700SOL    HW141278   8.464   7.036   2.923 -2.2702  0.0200  1.0926
13700SOL    HW241279   8.363   6.991   2.802 -0.8175  0.5288 -0.3397
13701SOL     OW41280   0.257   7.245   8.576 -0.1151  0.2897 -0.1305
13701SOL    HW141281   0.172   7.212   8.618 -0.7281  0.0496 -1.5115
13701SOL    HW241282   0.286   7.181   8.505  0.4650  1.0835 -0.6191
13702SOL     OW41283   2.895   3.407   5.506 -0.1498 -0.1408 -0.1703
13702SOL    HW141284   2.867   3.501   5.489  0.1913  0.3033  1.6095
13702SOL    HW241285   2.861   3.349   5.432 -0.3342  1.3678 -1.3118
13703SOL     OW41286   2.666   4.956   6.858 -0.0843  0.4035  0.2821
13703SOL    HW141287   2.723   4.969   6.939 -1.0400  0.6576  0.9346
13703SOL    HW241288   2.671   4.862   6.827  0.0792  0.2389  0.8075
13704SOL     OW41289   3.781   8.569   1.060 -0.1763 -0.1102  0.3657
13704SOL    HW141290   3.781   8.506   1.137 -2.2836  0.7238  1.1220
13704SOL    HW241291   3.703   8.632   1.068 -1.3111 -0.8279 -3.1051
13705SOL     OW41292   5.221   7.009   1.023  0.3800 -0.2600 -0.4772
13705SOL    HW141293   5.186   7.096   0.988  0.7412  0.1644  0.1959
13705SOL    HW241294   5.320   7.015   1.034  0.5079 -1.0014 -1.0883
13706SOL     OW41295   2.121   5.202   8.167 -0.3948  0.0658  0.3528
13706SOL    HW141296   2.190   5.224   8.235 -0.4189 -0.9703  0.7289
13706SOL    HW241297   2.030   5.224   8.203 -0.2843  1.3965 -0.1284
13707SOL     OW41298   7.330   0.913   6.185 -0.7964  0.2289  0.1297
13707SOL    HW141299   7.294   0.831   6.230 -0.0778 -1.4640 -2.1786
13707SOL    HW241300   7.267   0.989   6.200 -2.3719 -1.1537  0.9329
13708SOL     OW41301   2.954   0.002   1.563  0.9027 -0.0540  0.0185
13708SOL    HW141302   2.933   0.098   1.579 -0.4885 -0.3247 -0.1226
13708SOL    HW241303   2.900  -0.055   1.624  0.3263 -0.8264 -1.1717
13709SOL     OW41304   4.598   3.379   4.508 -0.0952  0.3525  0.1055
13709SOL    HW141305   4.546   3.297   4.534 -0.5514  0.4615 -0.4515
13709SOL    HW241306   4.594   3.446   4.582 -0.3475  0.1694  0.2597
13710SOL     OW41307   8.418   1.139   4.828  0.3771 -0.3701  0.1393
13710SOL    HW141308   8.319   1.139   4.819  0.4771 -0.2110 -1.3023
13710SOL    HW241309   8.445   1.086   4.908 -0.9570  1.4284  1.8674
13711SOL     OW41310   6.897   7.621   3.480  0.2875 -0.2931  0.1409
13711SOL    HW141311   6.913   7.684   3.404  0.0058 -1.2994 -0.7896
13711SOL    HW241312   6.970   7.553   3.483 -0.1406 -0.7601  0.2306
13712SOL     OW41313   6.344   4.771   0.376 -0.3094  0.6439 -0.3212
13712SOL    HW141314   6.319   4.676   0.357  1.8833 -0.4394  1.7598
13712SOL    HW241315   6.286   4.807   0.449 -3.0403  1.9903 -2.9178
13713SOL     OW41316   4.504   6.725   6.005  0.2502 -0.3014 -0.3955
13713SOL    HW141317   4.541   6.798   6.063  0.9695  0.2013 -1.4733
13713SOL    HW241318   4.524   6.745   5.909 -3.0305  0.1528 -1.1183
13714SOL     OW41319   1.695   3.437   7.653 -0.2710 -0.4615  0.1189
13714SOL    HW141320   1.684   3.533   7.678  0.8955 -0.4751  0.7318
13714SOL    HW241321   1.648   3.380   7.721  0.4833 -0.3801  0.7267
13715SOL     OW41322   3.770   5.255   1.081 -0.1920 -0.0741  0.4091
13715SOL    HW141323   3.777   5.331   1.016  1.7317  1.0865  1.8603
13715SOL    HW241324   3.802   5.171   1.037 -0.7911  0.2694 -0.7268
13716SOL     OW41325   7.029   8.337   7.249 -0.2797 -0.1403  0.5177
13716SOL    HW141326   7.106   8.371   7.195 -1.1676  1.0062 -0.0756
13716SOL    HW241327   6.964   8.412   7.265 -1.8781 -1.3567 -0.0547
13717SOL     OW41328   5.728   3.408   1.189  0.4029  0.4551 -0.3058
13717SOL    HW141329   5.663   3.456   1.130  0.0778 -0.3237 -0.5885
13717SOL    HW241330   5.706   3.426   1.284 -0.3811 -0.0022 -0.3970
13718SOL     OW41331   7.804   2.071   0.347  0.3740  0.3445  0.0402
13718SOL    HW141332   7.751   2.142   0.299  0.2089 -0.0969 -0.4380
13718SOL    HW241333   7.752   1.986   0.349  0.5170  0.2659  0.7304
13719SOL     OW41334   8.402   4.265   5.951  0.1895 -0.1060  0.0875
13719SOL    HW141335   8.432   4.339   6.012 -0.5177  0.3145 -0.0654
13719SOL    HW241336   8.426   4.288   5.857 -2.6823  1.4103 -0.3802
13720SOL     OW41337   8.183   1.519   4.615  0.2950 -0.6948  0.1023
13720SOL    HW141338   8.172   1.464   4.532  1.2907 -1.9631  0.7676
13720SOL    HW241339   8.187   1.458   4.695 -0.5326  0.4883  1.0923
13721SOL     OW41340   5.057   3.638   3.179 -0.1751 -0.7008  0.2317
13721SOL    HW141341   5.127   3.685   3.234  0.1700 -2.1577  1.0860
13721SOL    HW241342   5.100   3.594   3.100 -0.7549  1.9315 -1.6854
13722SOL     OW41343   5.729   3.068   5.113  0.1747  0.3222 -0.2766
13722SOL    HW141344   5.817   3.027   5.088  0.4636  0.4543  0.4664
13722SOL    HW241345   5.661   3.050   5.042  0.1122 -1.9954  0.2980
13723SOL     OW41346   5.105   8.106   3.059  0.0625 -0.0162 -0.1394
13723SOL    HW141347   5.091   8.071   2.966 -2.0450 -0.9894  0.4868
13723SOL    HW241348   5.084   8.034   3.125 -1.8396  1.6168  1.1450
13724SOL     OW41349   0.432   2.632   7.948  0.2307 -0.0831 -0.8327
13724SOL    HW141350   0.349   2.668   7.905  0.4634 -0.3961 -1.5464
13724SOL    HW241351   0.425   2.532   7.956  0.2232 -0.0409 -0.2045
13725SOL     OW41352   0.132   8.543   6.897  0.2283 -0.2994 -0.3399
13725SOL    HW141353   0.045   8.556   6.945 -0.2108  0.7342 -1.3522
13725SOL    HW241354   0.160   8.448   6.905  0.0328 -0.2256  1.6781
13726SOL     OW41355   6.425   8.155   7.161  0.2663  0.0916  0.5929
13726SOL    HW141356   6.368   8.168   7.080 -0.2912 -3.7588  0.1771
13726SOL    HW241357   6.366   8.148   7.242  0.5700  0.7938  0.8834
13727SOL     OW41358   7.091   7.458   4.653  0.0053 -0.2281 -0.0511
13727SOL    HW141359   7.143   7.534   4.690 -0.4387 -0.4853  1.1587
13727SOL    HW241360   7.140   7.417   4.576  1.3468 -0.1548  0.7402
13728SOL     OW41361   4.948   3.053   5.620  0.1977 -0.2486 -0.0093
13728SOL    HW141362   4.918   2.970   5.668 -1.5170  0.1903 -0.2318
13728SOL    HW241363   4.888   3.069   5.542 -1.3873  2.6868  1.6129
13729SOL     OW41364   8.789   3.731   0.442 -0.1876  0.6421 -0.0518
13729SOL    HW141365   8.880   3.748   0.478  0.1485 -0.3794 -0.3937
13729SOL    HW241366   8.759   3.639   0.468 -0.4353  0.3443 -1.3225
13730SOL     OW41367   1.809   6.165   2.779  0.1058 -0.1180 -0.8830
13730SOL    HW141368   1.756   6.096   2.729  0.7357 -0.4709 -1.0750
13730SOL    HW241369   1.748   6.218   2.837 -0.2638 -1.5413  0.0728
13731SOL     OW41370   7.447   4.227   6.044 -0.3825 -0.5344  0.7354
13731SOL    HW141371   7.540   4.262   6.052 -0.2403 -0.2998 -1.4201
13731SOL    HW241372   7.435   4.147   6.104  1.5472 -1.2433  0.2274
13732SOL     OW41373   7.971   3.307   7.621 -0.1006 -0.4988  0.0684
13732SOL    HW141374   7.893   3.366   7.645 -0.3932 -0.3603 -1.1668
13732SOL    HW241375   7.979   3.234   7.689 -1.2014 -0.4102  0.3182
13733SOL     OW41376   1.622   3.605   6.568  0.0948 -0.0151  0.1552
13733SOL    HW141377   1.610   3.615   6.667 -0.5687  1.1427 -0.0214
13733SOL    HW241378   1.697   3.663   6.538  0.8262 -0.9769  0.0758
13734SOL     OW41379   5.285   5.013   8.296 -0.1468  0.3119  0.2958
13734SOL    HW141380   5.229   5.015   8.213  0.9911  1.7424 -0.4699
13734SOL    HW241381   5.306   4.918   8.319 -0.8953 -0.1339 -0.7513
13735SOL     OW41382   2.181   2.155   0.526 -0.0262  0.1564  0.1654
13735SOL    HW141383   2.186   2.088   0.452 -1.1197  2.0019 -1.6569
13735SOL    HW241384   2.273   2.171   0.562  0.5489 -0.6706 -0.8659
13736SOL     OW41385   6.592   0.782   8.170 -0.6082 -0.2727  0.3319
13736SOL    HW141386   6.498   0.815   8.182 -0.2701  1.5957 -1.5152
13736SOL    HW241387   6.654   0.836   8.227 -0.1334  2.0688 -2.2007
13737SOL     OW41388   6.763   0.655   0.214 -0.1480 -0.0673  0.1872
13737SOL    HW141389   6.673   0.652   0.258 -0.8307  1.5832 -0.9888
13737SOL    HW241390   6.831   0.685   0.281 -0.5515 -0.8247  0.9604
13738SOL     OW41391   7.863   2.688   3.098 -0.0453 -0.1219  0.0122
13738SOL    HW141392   7.781   2.707   3.044  0.9157 -0.5692 -1.6979
13738SOL    HW241393   7.921   2.769   3.101 -0.6389  0.2699  1.4270
13739SOL     OW41394   2.926   1.794   1.749  0.1254 -0.0636 -0.9447
13739SOL    HW141395   2.919   1.702   1.710 -1.4145 -0.7271  0.7393
13739SOL    HW241396   2.997   1.795   1.819 -0.4454 -0.2476 -0.3462
13740SOL     OW41397   3.212   7.236   4.982 -0.4634 -0.2651 -0.1920
13740SOL    HW141398   3.196   7.310   5.046 -0.7259  0.3322 -0.9337
13740SOL    HW241399   3.124   7.202   4.947 -0.2843  1.0846 -2.0979
13741SOL     OW41400   3.527   6.764   4.849  0.6272 -0.4128 -0.8094
13741SOL    HW141401   3.522   6.676   4.897  0.0402 -0.3559 -0.7525
13741SOL    HW241402   3.434   6.794   4.827  0.7818  0.5040 -0.2576
13742SOL     OW41403   1.504   5.314   7.605 -0.2856  0.3919 -0.5953
13742SOL    HW141404   1.452   5.320   7.520  0.6475  0.8954 -1.1417
13742SOL    HW241405   1.510   5.404   7.648  0.5873  0.4434 -0.8158
13743SOL     OW41406   4.229   3.714   8.547  0.1996  0.5058 -0.0954
13743SOL    HW141407   4.308   3.766   8.517  0.3953  0.2086 -0.1012
13743SOL    HW241408   4.157   3.718   8.478 -0.9061  3.1338  1.0974
13744SOL     OW41409   2.968   2.738   0.800 -0.1444 -0.3771 -0.0722
13744SOL    HW141410   3.055   2.689   0.808 -1.0564 -1.9507  0.6834
13744SOL    HW241411   2.977   2.829   0.841  0.6653 -1.1901  1.6510
13745SOL     OW41412   1.134   2.560   7.070  0.3591  0.0056  0.2509
13745SOL    HW141413   1.122   2.610   7.156 -1.5079  0.0902 -0.0166
13745SOL    HW241414   1.212   2.499   7.078 -0.4371 -0.8261  2.4359
13746SOL     OW41415   5.594   7.555   2.318 -0.4292 -0.5608  0.1369
13746SOL    HW141416   5.682   7.579   2.276  0.4802 -1.4191  1.4718
13746SOL    HW241417   5.547   7.489   2.260 -0.4009  0.2182 -0.7983
13747SOL     OW41418   6.040   3.261   1.491  0.2350  0.0693  0.0411
13747SOL    HW141419   5.991   3.330   1.544  0.2447  0.3291 -0.2842
13747SOL    HW241420   5.974   3.203   1.443  0.2450  0.4229 -0.4018
13748SOL     OW41421   1.908   1.055   7.197 -0.0109 -0.2126  0.0492
13748SOL    HW141422   1.922   1.112   7.278  0.2965  0.9010 -0.7555
13748SOL    HW241423   1.813   1.061   7.167  0.2268  0.6635 -0.5793
13749SOL     OW41424   3.139   1.882   7.161  0.1343 -0.5860  0.6485
13749SOL    HW141425   3.124   1.851   7.067  0.3010 -5.1026  1.8601
13749SOL    HW241426   3.228   1.927   7.168  0.5281 -1.0102 -1.2166
13750SOL     OW41427   1.695   8.446   1.559  0.1239 -0.0938  0.3234
13750SOL    HW141428   1.765   8.419   1.492  2.6259  1.7285  2.0172
13750SOL    HW241429   1.651   8.364   1.594 -0.3610 -1.1814 -2.5044
13751SOL     OW41430   5.736   1.984   2.068 -0.1702 -0.7115  0.2555
13751SOL    HW141431   5.644   2.017   2.091  0.2319  0.7966 -0.2343
13751SOL    HW241432   5.804   2.035   2.120  0.4210 -1.6234  0.3984
13752SOL     OW41433   8.733   3.656   7.305  0.4538 -0.3332 -1.4532
13752SOL    HW141434   8.812   3.596   7.290  1.6323  0.5554  0.7352
13752SOL    HW241435   8.748   3.744   7.261 -0.5611 -1.0169 -3.2854
13753SOL     OW41436   6.833   8.156   5.454 -0.3767  0.1324 -0.4733
13753SOL    HW141437   6.739   8.124   5.470  0.2686 -1.4830  0.3128
13753SOL    HW241438   6.839   8.253   5.475 -1.7172  0.1140  0.1059
13754SOL     OW41439   6.949   2.968   7.128  0.0104 -1.0163  0.0753
13754SOL    HW141440   6.943   3.025   7.046  0.0848  0.6590  1.1809
13754SOL    HW241441   6.862   2.920   7.141  0.0126 -1.3276 -0.9967
13755SOL     OW41442   6.288   4.753   1.572  0.0985 -0.5444  0.2900
13755SOL    HW141443   6.272   4.834   1.629  0.3300 -0.7356  0.6209
13755SOL    HW241444   6.311   4.783   1.479  0.8671 -0.2206  0.5810
13756SOL     OW41445   8.749   4.411   6.018 -0.0463 -0.1451 -0.1657
13756SOL    HW141446   8.721   4.361   5.936 -0.7954 -0.2914  0.1746
13756SOL    HW241447   8.671   4.462   6.055  0.0312 -0.8244  0.9866
13757SOL     OW41448   4.433   8.457   5.568 -0.0403 -0.1788  0.0425
13757SOL    HW141449   4.504   8.442   5.636  0.1507 -0.4734 -0.2215
13757SOL    HW241450   4.419   8.556   5.556 -1.1497 -0.0892  1.6186
13758SOL     OW41451   8.854   4.258   6.463 -0.3092  0.1035  0.1343
13758SOL    HW141452   8.880   4.243   6.368 -3.2137  0.1397 -0.7634
13758SOL    HW241453   8.835   4.355   6.479  0.7124  0.1887  0.9318
13759SOL     OW41454   5.155   1.836   3.084 -0.6207 -0.0800 -0.2967
13759SOL    HW141455   5.148   1.815   2.987  0.1503  0.7744 -0.5496
13759SOL    HW241456   5.152   1.751   3.137 -1.5356 -0.5143 -1.0245
13760SOL     OW41457   0.356   8.371   1.220 -0.4509 -0.1768  0.0970
13760SOL    HW141458   0.328   8.285   1.179 -1.6366  1.2500 -2.3172
13760SOL    HW241459   0.412   8.423   1.154  0.3415  0.8697  1.5298
13761SOL     OW41460   5.347   6.901   3.023  0.1864 -0.1652  0.0501
13761SOL    HW141461   5.293   6.819   3.006  0.9719 -0.7050  0.1167
13761SOL    HW241462   5.443   6.877   3.032  0.3677  0.6941  0.6208
13762SOL     OW41463   3.285   6.463   4.531  0.1998 -0.3024 -0.1222
13762SOL    HW141464   3.349   6.539   4.538 -0.6912  0.4157  0.3883
13762SOL    HW241465   3.328   6.387   4.482  1.3560  0.2439  0.0311
13763SOL     OW41466   8.062   4.726   3.483  0.3329 -0.7068 -0.0330
13763SOL    HW141467   8.107   4.792   3.543 -0.2845 -1.2346  1.0426
13763SOL    HW241468   8.127   4.654   3.458  0.8652  0.0184 -0.8038
13764SOL     OW41469   7.191   2.395   0.039 -0.0053 -0.1159 -0.3712
13764SOL    HW141470   7.106   2.365   0.081 -0.6299  1.9347 -0.0479
13764SOL    HW241471   7.175   2.414  -0.058  0.0635  0.2904 -0.3061
13765SOL     OW41472   4.336   3.200   1.588 -0.1856  0.8220  0.2147
13765SOL    HW141473   4.404   3.273   1.583 -0.2510  0.8656 -0.0131
13765SOL    HW241474   4.249   3.239   1.618 -0.0601  0.7319  0.7139
13766SOL     OW41475   8.300   1.902   7.840 -0.3934  0.2533 -0.8243
13766SOL    HW141476   8.390   1.918   7.879  0.1395 -0.0376 -1.8964
13766SOL    HW241477   8.236   1.972   7.873  0.7905  1.9130 -1.9263
13767SOL     OW41478   1.836   5.331   3.890 -0.1843  0.0000  0.0580
13767SOL    HW141479   1.752   5.376   3.859  1.5519  1.3190 -3.1294
13767SOL    HW241480   1.844   5.241   3.846  1.4597  1.1545 -2.1480
13768SOL     OW41481   5.009   2.568   7.555 -0.0528 -0.3843  0.2995
13768SOL    HW141482   4.996   2.508   7.634 -1.8392  1.2197  1.2927
13768SOL    HW241483   5.101   2.607   7.559  0.3495 -1.3448  0.8356
13769SOL     OW41484   6.113   2.255   6.976 -0.4917  0.0677 -0.5440
13769SOL    HW141485   6.118   2.355   6.977  2.5454  0.0468  1.1457
13769SOL    HW241486   6.202   2.219   6.949 -0.8310 -2.1496  1.0525
13770SOL     OW41487   8.006   3.667   5.439  0.4044 -0.2095 -0.3880
13770SOL    HW141488   7.981   3.583   5.489  2.4423  0.0702  1.2183
13770SOL    HW241489   8.093   3.654   5.393  1.1797  1.2624  0.5815
13771SOL     OW41490   5.359   3.037   0.114 -0.2583 -0.4272 -0.4541
13771SOL    HW141491   5.288   2.992   0.168 -0.5063  0.4704 -0.0185
13771SOL    HW241492   5.417   2.968   0.072 -1.1123 -1.1695 -0.4505
13772SOL     OW41493   4.855   1.076   1.495  0.2278 -0.6560  0.2535
13772SOL    HW141494   4.756   1.058   1.497  0.3006 -1.3976 -1.2094
13772SOL    HW241495   4.872   1.170   1.525 -0.9838 -0.3160 -0.0596
13773SOL     OW41496   4.788   3.978   1.376 -0.2625 -0.4927 -0.3179
13773SOL    HW141497   4.789   3.981   1.276 -0.4723 -1.9170 -0.3815
13773SOL    HW241498   4.810   4.069   1.412 -2.2148  0.5760 -1.6319
13774SOL     OW41499   6.515   1.535   8.177 -0.5013  0.4830  0.0857
13774SOL    HW141500   6.450   1.506   8.106 -1.1414 -1.4460  1.3869
13774SOL    HW241501   6.467   1.591   8.245 -0.2961  0.8523 -0.0724
13775SOL     OW41502   4.695   8.329   7.010 -0.2689  0.0640  0.2261
13775SOL    HW141503   4.763   8.300   6.943 -1.1179 -0.7247 -0.3128
13775SOL    HW241504   4.631   8.392   6.967 -0.9983 -0.6833  0.1995
13776SOL     OW41505   3.932   8.478   8.785 -0.5830 -0.2330 -0.1805
13776SOL    HW141506   3.964   8.571   8.806 -0.9830 -0.1660  0.1444
13776SOL    HW241507   3.909   8.472   8.688  0.6209 -0.3463 -0.4774
13777SOL     OW41508   5.716   6.867   0.395 -0.1204 -0.0870  0.3999
13777SOL    HW141509   5.813   6.842   0.384  0.2238  1.4251 -0.2860
13777SOL    HW241510   5.660   6.785   0.387  1.1050 -1.0381  1.0348
13778SOL     OW41511   5.048   2.366   7.718 -0.5300  0.3773 -0.0127
13778SOL    HW141512   5.115   2.294   7.701 -1.6390 -0.5275 -0.6935
13778SOL    HW241513   5.039   2.381   7.816 -0.3610 -0.4880  0.1441
13779SOL     OW41514   1.878   1.892   4.404  0.0103  0.2653  0.2699
13779SOL    HW141515   1.849   1.799   4.428 -0.6402  0.1503 -0.9037
13779SOL    HW241516   1.974   1.890   4.375 -0.3102 -0.2358 -0.7919
13780SOL     OW41517   0.233   3.791   5.274 -0.0064 -0.0520  0.0448
13780SOL    HW141518   0.171   3.717   5.297  1.7492 -1.3907  0.6967
13780SOL    HW241519   0.234   3.857   5.350 -0.1666 -0.3341  0.2953
13781SOL     OW41520   2.044   1.126   4.828 -0.0080 -0.2765  0.2228
13781SOL    HW141521   2.105   1.090   4.758  0.8176 -0.3147  0.9459
13781SOL    HW241522   2.068   1.221   4.849  1.3949 -1.0074  2.1987
13782SOL     OW41523   7.936   7.246   3.538  0.4891 -0.3156  0.2192
13782SOL    HW141524   8.029   7.281   3.549  0.4533 -0.1030 -0.1359
13782SOL    HW241525   7.936   7.174   3.469  0.6229 -1.2767  1.1802
13783SOL     OW41526   8.027   0.913   3.409  0.0045  0.4686 -0.3168
13783SOL    HW141527   8.020   0.814   3.412  0.5022  0.4460  0.1650
13783SOL    HW241528   7.935   0.953   3.415 -0.0729  0.0867  1.8040
13784SOL     OW41529   1.293   7.012   8.345 -0.6738 -0.7634  0.1434
13784SOL    HW141530   1.388   6.985   8.331 -0.6399 -1.6475  1.7756
13784SOL    HW241531   1.286   7.064   8.430 -1.5800 -0.2394 -0.2397
13785SOL     OW41532   6.608   6.364   3.955  0.1045 -0.0928 -0.1298
13785SOL    HW141533   6.575   6.290   4.014  0.2805 -0.4755 -0.5048
13785SOL    HW241534   6.613   6.331   3.861  1.6060 -0.0821 -0.0848
13786SOL     OW41535   2.621   3.754   0.356  0.1139 -0.2925  0.1982
13786SOL    HW141536   2.683   3.675   0.352  0.3167 -0.2608  1.9517
13786SOL    HW241537   2.527   3.722   0.352  0.1445 -0.3418 -2.5189
13787SOL     OW41538   4.019   2.660   7.888 -0.6145  0.0486  0.2337
13787SOL    HW141539   3.920   2.670   7.883 -0.6333 -0.5442 -1.2902
13787SOL    HW241540   4.042   2.580   7.944 -1.0922 -0.8623 -0.8294
13788SOL     OW41541   8.508   0.446   6.951 -0.5898  0.9009 -0.7348
13788SOL    HW141542   8.604   0.421   6.942 -0.5281  0.8776 -0.0737
13788SOL    HW241543   8.468   0.462   6.860 -0.2356 -0.1091 -1.0773
13789SOL     OW41544   6.861   7.319   1.140 -0.1371  0.0769 -0.5709
13789SOL    HW141545   6.822   7.228   1.120  1.4532 -0.5412 -1.0334
13789SOL    HW241546   6.902   7.318   1.231  1.7688 -0.3848 -1.3872
13790SOL     OW41547   2.632   0.975   5.613 -0.1490  0.1368  0.3137
13790SOL    HW141548   2.659   0.909   5.682 -0.4464  0.3602  0.6473
13790SOL    HW241549   2.669   0.948   5.524 -3.8138 -2.9757 -0.5415
13791SOL     OW41550   3.688   6.928   0.871  0.4617 -0.2442 -0.1199
13791SOL    HW141551   3.718   6.905   0.963  0.7845  1.4348  0.2398
13791SOL    HW241552   3.724   7.018   0.846 -1.7648  0.5222 -0.8491
13792SOL     OW41553   4.899   8.265   3.896 -0.0781  0.1118 -0.2547
13792SOL    HW141554   4.997   8.278   3.890 -0.1958  0.4714 -1.8440
13792SOL    HW241555   4.876   8.219   3.982  1.7304 -2.2488 -0.9422
13793SOL     OW41556   5.889   4.574   5.277 -0.7939 -0.1659 -0.7223
13793SOL    HW141557   5.801   4.529   5.289 -1.6267  1.5154 -0.1489
13793SOL    HW241558   5.953   4.542   5.347 -1.6158  0.0961  0.1766
13794SOL     OW41559   0.038   8.829   3.793  0.2275 -0.3721  0.4535
13794SOL    HW141560   0.079   8.885   3.722 -0.1791  0.6434  0.9975
13794SOL    HW241561  -0.059   8.817   3.774 -0.8577  3.2117  2.7373
13795SOL     OW41562   1.057   3.016   1.290 -0.3972 -0.0783  0.0419
13795SOL    HW141563   1.144   2.986   1.330 -0.2706 -0.5283 -0.5548
13795SOL    HW241564   1.046   3.114   1.303 -0.9925 -0.4052  2.3781
13796SOL     OW41565   3.567   7.248   6.595 -0.1702 -0.1229  0.5561
13796SOL    HW141566   3.600   7.173   6.652 -0.6801 -0.0931  0.9067
13796SOL    HW241567   3.471   7.232   6.571 -0.3913  0.5791  0.9317
13797SOL     OW41568   4.325   5.963   6.186  0.3167 -0.0528  0.3369
13797SOL    HW141569   4.260   6.024   6.140 -0.1904 -0.0288  1.0605
13797SOL    HW241570   4.280   5.877   6.208 -0.1692  0.7283  2.7471
13798SOL     OW41571   5.583   5.795   8.705  0.3403 -0.0044 -0.0359
13798SOL    HW141572   5.649   5.856   8.662  1.4933 -1.7066 -0.8060
13798SOL    HW241573   5.493   5.810   8.665  0.1271  2.5293  1.2020
13799SOL     OW41574   0.625   7.540   5.955  0.1328  0.1340 -0.5674
13799SOL    HW141575   0.585   7.449   5.948  2.1775 -0.8119 -0.6658
13799SOL    HW241576   0.610   7.576   6.047 -0.6951 -0.2961 -0.5286
13800SOL     OW41577   0.406   4.757   5.800 -0.4781  0.2396 -0.3990
13800SOL    HW141578   0.320   4.809   5.800 -1.1041 -0.7583 -0.0759
13800SOL    HW241579   0.436   4.742   5.894 -2.1128 -2.7893 -0.2292
13801SOL     OW41580   6.726   5.569   2.793  0.0642 -0.7257  0.1880
13801SOL    HW141581   6.816   5.611   2.805 -0.2157  0.2327 -0.8329
13801SOL    HW241582   6.659   5.619   2.847  0.0283 -0.9874  0.3842
13802SOL     OW41583   0.732   1.809   6.454  0.8451 -0.1644  0.4416
13802SOL    HW141584   0.742   1.858   6.541  0.6616  2.0680 -0.7237
13802SOL    HW241585   0.820   1.808   6.406  1.3892 -2.8717  1.2981
13803SOL     OW41586   1.495   2.029   5.792  0.4504 -0.0517 -0.3724
13803SOL    HW141587   1.419   2.038   5.727 -0.3880 -1.7022  0.3281
13803SOL    HW241588   1.466   1.975   5.870  2.3022 -0.5441  0.0210
13804SOL     OW41589   0.313   5.681   4.554  0.1108  0.3940  0.4375
13804SOL    HW141590   0.257   5.677   4.471 -1.8386  1.0556  1.6709
13804SOL    HW241591   0.358   5.593   4.567 -0.9171 -0.2909 -0.4175
13805SOL     OW41592   8.138   8.436   6.034 -0.0247 -0.3889  0.1134
13805SOL    HW141593   8.226   8.394   6.058 -0.2928 -0.5012  0.9276
13805SOL    HW241594   8.082   8.370   5.984 -0.2312 -0.8214  0.9117
13806SOL     OW41595   6.758   5.874   1.669  0.2079 -0.3163  0.5493
13806SOL    HW141596   6.707   5.960   1.670 -0.3304 -0.6236 -0.3205
13806SOL    HW241597   6.850   5.890   1.633 -0.3223 -0.3303 -0.8594
13807SOL     OW41598   8.317   2.002   8.483  0.2814  0.5100 -0.3014
13807SOL    HW141599   8.285   2.094   8.462 -0.0318  0.3662 -0.4513
13807SOL    HW241600   8.408   2.008   8.526  0.7203  0.8316 -1.2518
13808SOL     OW41601   4.301   8.782   3.670  0.2965  0.0057  0.2329
13808SOL    HW141602   4.266   8.732   3.749 -0.7213 -2.1722 -1.4797
13808SOL    HW241603   4.225   8.828   3.623  0.4607 -0.7310 -0.7966
13809SOL     OW41604   1.448   7.697   8.555 -0.0175  0.2295 -0.6880
13809SOL    HW141605   1.468   7.794   8.538  1.6351  0.1959  0.7990
13809SOL    HW241606   1.528   7.654   8.597 -0.9386 -1.6597 -0.7959
13810SOL     OW41607   5.126   1.585   8.288  0.3677  0.2170 -0.1089
13810SOL    HW141608   5.158   1.672   8.250 -0.5090  0.0125 -1.3559
13810SOL    HW241609   5.098   1.524   8.214 -1.3367 -0.2277  0.8386
13811SOL     OW41610   7.627   3.336   0.683 -0.0160  0.0514  0.5317
13811SOL    HW141611   7.571   3.396   0.626  0.0253 -1.7408 -1.5209
13811SOL    HW241612   7.569   3.269   0.729  0.2232 -0.4972  0.0502
13812SOL     OW41613   7.594   5.436   2.518 -0.1396  0.8606 -0.1347
13812SOL    HW141614   7.664   5.411   2.584 -0.3220  0.6319 -0.0266
13812SOL    HW241615   7.504   5.411   2.553 -0.1490 -0.4117 -0.9864
13813SOL     OW41616   4.874   6.783   0.947  0.2008  0.3271  0.0390
13813SOL    HW141617   4.928   6.727   0.885  0.6414  1.3843 -0.5666
13813SOL    HW241618   4.905   6.767   1.041  1.5966  0.8878 -0.2915
13814SOL     OW41619   4.628   7.543   3.664 -0.0964  0.3998  0.4946
13814SOL    HW141620   4.608   7.594   3.581  0.2697  0.1138  0.2292
13814SOL    HW241621   4.726   7.544   3.681 -0.2566  1.3178  1.4817
13815SOL     OW41622   1.432   2.082   1.577  0.2192  0.1226 -0.3364
13815SOL    HW141623   1.455   2.160   1.635 -1.4988 -0.1507  0.7920
13815SOL    HW241624   1.493   2.005   1.599  0.3595  0.3948  0.2553
13816SOL     OW41625   5.143   4.199   2.524  0.1167  0.0296  0.1981
13816SOL    HW141626   5.165   4.102   2.530 -0.6078 -0.1513  0.0382
13816SOL    HW241627   5.174   4.235   2.436 -0.4122 -0.2727 -0.1177
13817SOL     OW41628   7.154   7.445   4.035  0.5051  0.7080 -0.5167
13817SOL    HW141629   7.171   7.519   3.970  3.8912 -2.2529 -3.4321
13817SOL    HW241630   7.062   7.408   4.019  0.1293  1.9809 -1.5220
13818SOL     OW41631   8.158   8.288   2.226  0.4704  0.4483 -0.3857
13818SOL    HW141632   8.183   8.223   2.154 -0.9667  1.1278 -1.5401
13818SOL    HW241633   8.070   8.330   2.204 -0.0896  0.5662  1.8571
13819SOL     OW41634   3.522   2.605   0.266  0.0574 -0.2853 -0.2810
13819SOL    HW141635   3.502   2.690   0.217  1.2943  0.2575  0.1381
13819SOL    HW241636   3.503   2.527   0.206 -0.3626  0.3044 -0.9293
13820SOL     OW41637   1.879   4.135   4.946  0.2710  0.3380  0.0431
13820SOL    HW141638   1.915   4.092   4.864 -0.2950  0.9965 -0.5651
13820SOL    HW241639   1.902   4.232   4.945 -1.0034  0.6589 -0.0835
13821SOL     OW41640   2.222   0.777   6.456  0.7869 -0.3235 -0.0304
13821SOL    HW141641   2.186   0.764   6.364 -1.9853 -0.3911  0.9735
13821SOL    HW241642   2.197   0.868   6.489  1.3944 -0.4518  0.8158
13822SOL     OW41643   8.427   8.821   7.296 -0.2446  0.9537  0.0752
13822SOL    HW141644   8.366   8.867   7.361 -0.7724 -2.3608  2.2229
13822SOL    HW241645   8.386   8.820   7.205 -1.8951  1.5393  0.7856
13823SOL     OW41646   2.459   5.116   8.080 -0.5121 -0.4545  0.1636
13823SOL    HW141647   2.395   5.160   8.018 -1.1156 -0.4346  0.7888
13823SOL    HW241648   2.497   5.185   8.142 -0.1781 -0.5341  0.0498
13824SOL     OW41649   4.246   4.319   5.240 -0.0250  0.0123  0.1577
13824SOL    HW141650   4.322   4.383   5.253  1.1307 -1.5436  1.5126
13824SOL    HW241651   4.254   4.275   5.151  0.0863  0.5765 -0.1142
13825SOL     OW41652   8.618   3.173   2.740  0.5539 -0.1568 -0.5438
13825SOL    HW141653   8.648   3.200   2.649  2.1385  0.2529  0.0616
13825SOL    HW241654   8.645   3.079   2.759  2.4340  0.5118  0.3562
13826SOL     OW41655   8.181   6.540   6.498  0.5483 -0.6692  0.3956
13826SOL    HW141656   8.125   6.579   6.425  0.4487 -2.3442 -0.4631
13826SOL    HW241657   8.153   6.578   6.586  0.4882  1.1892 -0.3873
13827SOL     OW41658   8.461   6.938   3.125  0.3926  0.0857  0.5105
13827SOL    HW141659   8.458   6.848   3.080 -1.5520 -0.4330  1.5605
13827SOL    HW241660   8.386   6.944   3.192  0.8079  2.3038  0.8381
13828SOL     OW41661   8.639   2.967   4.931  0.2566  0.2485 -0.8191
13828SOL    HW141662   8.585   3.048   4.953 -0.1263  0.3401 -2.0097
13828SOL    HW241663   8.599   2.887   4.976 -0.1155  0.5173 -0.6692
13829SOL     OW41664   3.103   4.526   5.169 -0.0159  0.3194 -0.0391
13829SOL    HW141665   3.203   4.525   5.162 -0.0185  0.7823 -0.1853
13829SOL    HW241666   3.066   4.444   5.126  0.2335  0.8012 -1.2100
13830SOL     OW41667   7.744   2.357   6.910  0.1097 -0.4319 -0.5844
13830SOL    HW141668   7.811   2.353   6.835  2.1338  1.5515  0.9808
13830SOL    HW241669   7.707   2.449   6.916 -0.9734 -0.8994  0.0983
13831SOL     OW41670   8.396   3.588   4.560 -0.1644  0.0736  0.1583
13831SOL    HW141671   8.393   3.641   4.476 -3.8057  1.3288  0.9360
13831SOL    HW241672   8.373   3.646   4.638  1.8802 -1.3294  1.9432
13832SOL     OW41673   2.646   1.467   7.151 -0.0824 -0.1443  0.1718
13832SOL    HW141674   2.551   1.447   7.130  0.0104 -1.0187  0.5209
13832SOL    HW241675   2.704   1.391   7.120  0.5290  0.4866 -0.2529
13833SOL     OW41676   3.006   7.775   4.690  0.8678 -0.1635  0.0746
13833SOL    HW141677   2.915   7.750   4.657  1.2886 -0.2322 -1.1035
13833SOL    HW241678   3.000   7.857   4.746  0.1012 -0.0622 -0.1457
13834SOL     OW41679   8.768   4.060   1.030 -0.4233  0.0600  0.3219
13834SOL    HW141680   8.671   4.063   1.006 -0.4783  1.0834  0.6274
13834SOL    HW241681   8.791   3.971   1.069 -1.7118  0.4645  2.1343
13835SOL     OW41682   0.646   0.698   5.551  0.1679 -0.5145  0.1079
13835SOL    HW141683   0.732   0.744   5.529  0.4640 -1.1077 -0.0150
13835SOL    HW241684   0.651   0.660   5.644  0.9739 -2.5695 -0.7010
13836SOL     OW41685   2.166   4.040   6.475  0.5146  0.1369 -0.6194
13836SOL    HW141686   2.073   4.010   6.495  1.1601 -1.7438 -0.2410
13836SOL    HW241687   2.174   4.062   6.378  0.3504 -2.5847 -1.3420
13837SOL     OW41688   7.454   5.544   0.520  0.0223  0.0017  0.0986
13837SOL    HW141689   7.455   5.532   0.619 -2.0532  0.3305  0.1949
13837SOL    HW241690   7.365   5.516   0.483  0.9156 -0.5968 -1.7590
13838SOL     OW41691   2.612   1.621   3.214  0.5967 -0.0656  0.3839
13838SOL    HW141692   2.533   1.673   3.247  2.1332  2.2607  0.6168
13838SOL    HW241693   2.677   1.608   3.289 -0.0889 -3.2447  0.5853
13839SOL     OW41694   6.335   5.348   6.932  0.4659 -0.3811 -0.6567
13839SOL    HW141695   6.398   5.422   6.958  2.6870 -2.0325 -0.9940
13839SOL    HW241696   6.291   5.370   6.845 -0.2195  1.2525  0.0675
13840SOL     OW41697   0.105   6.438   3.904 -0.3048  0.5933  0.3573
13840SOL    HW141698   0.083   6.378   3.827  0.0119 -0.3990  1.0360
13840SOL    HW241699   0.023   6.489   3.930 -1.3979 -1.6361  1.5955
13841SOL     OW41700   1.173   3.087   2.841 -0.1041  0.0947  0.3208
13841SOL    HW141701   1.076   3.076   2.819  0.4672  2.2048 -4.4723
13841SOL    HW241702   1.190   3.181   2.870  0.6236 -0.0599  0.4053
13842SOL     OW41703   0.465   0.273   0.663  0.0920  0.0621 -0.2300
13842SOL    HW141704   0.511   0.340   0.605 -0.7560  1.4688  0.6682
13842SOL    HW241705   0.532   0.228   0.722  0.6426  0.2717 -0.6891
13843SOL     OW41706   7.843   2.930   7.503 -0.3310 -0.3005  0.0229
13843SOL    HW141707   7.804   2.973   7.584 -0.9788  1.2390 -1.0773
13843SOL    HW241708   7.914   2.865   7.531  0.3073  1.0827  1.7545
13844SOL     OW41709   0.662   3.733   0.999  0.2498 -0.3318  0.1679
13844SOL    HW141710   0.664   3.711   0.901  2.3523 -3.0938  0.7041
13844SOL    HW241711   0.739   3.792   1.022 -0.6295  0.8746  0.0872
13845SOL     OW41712   7.765   2.048   2.285  0.1378  0.1552 -0.0936
13845SOL    HW141713   7.852   2.027   2.329 -0.1176 -0.1949  0.2573
13845SOL    HW241714   7.769   2.021   2.189  0.3874  0.0548 -0.0563
13846SOL     OW41715   0.650   1.356   1.452  0.7690  0.4123 -0.1836
13846SOL    HW141716   0.561   1.350   1.497  0.4688  0.0715 -0.8168
13846SOL    HW241717   0.637   1.362   1.353  1.3927  1.7885 -0.2101
13847SOL     OW41718   2.020   1.217   7.385  0.0168  0.6688 -0.4709
13847SOL    HW141719   2.022   1.256   7.477 -1.5740  0.0661 -0.1422
13847SOL    HW241720   2.104   1.166   7.369 -0.3119 -0.4934  1.2451
13848SOL     OW41721   5.241   4.529   6.334 -0.0107  0.1962  0.7692
13848SOL    HW141722   5.222   4.586   6.414  0.8130  2.7188 -0.7203
13848SOL    HW241723   5.230   4.583   6.251  1.5878 -1.6188 -0.7258
13849SOL     OW41724   1.717   3.953   5.492 -0.2872 -0.1726 -0.3233
13849SOL    HW141725   1.721   4.008   5.409  0.6529  0.4467  0.1065
13849SOL    HW241726   1.622   3.933   5.515 -0.6293  0.8836 -0.7533
13850SOL     OW41727   8.769   7.248   2.379  0.1873  0.0529 -0.3536
13850SOL    HW141728   8.838   7.223   2.310  0.6278 -1.6928  0.6690
13850SOL    HW241729   8.814   7.265   2.466 -0.5434  0.4750 -0.0528
13851SOL     OW41730   6.646   4.549   5.752  0.6930  0.0763 -0.2822
13851SOL    HW141731   6.609   4.614   5.819  1.2584 -0.5494  0.6660
13851SOL    HW241732   6.571   4.495   5.713  0.6015 -1.9128  2.3864
13852SOL     OW41733   0.570   3.874   4.060 -0.5681 -0.0548 -0.8355
13852SOL    HW141734   0.564   3.836   4.152 -2.0647  0.1641 -0.8186
13852SOL    HW241735   0.664   3.865   4.026  0.2670  0.7813  1.0890
13853SOL     OW41736   7.954   2.859   7.246 -0.3333 -0.4518  0.0071
13853SOL    HW141737   7.938   2.913   7.328 -2.0728  0.0327 -0.5941
13853SOL    HW241738   8.005   2.913   7.179 -1.6651  0.3295 -0.4150
13854SOL     OW41739   8.316   1.394   8.480 -0.7580  0.4518  0.1255
13854SOL    HW141740   8.379   1.450   8.426 -1.0025  0.5684 -0.0405
13854SOL    HW241741   8.350   1.300   8.484  0.6230  0.9706  1.9347
13855SOL     OW41742   3.974   3.232   1.301 -0.1664 -0.1141  0.5021
13855SOL    HW141743   3.976   3.229   1.201 -2.7961  2.0678  0.2553
13855SOL    HW241744   3.942   3.143   1.336  0.0527 -0.6639 -0.6385
13856SOL     OW41745   0.065   5.635   5.342  0.1462 -0.0404  0.0742
13856SOL    HW141746   0.152   5.659   5.385  0.1007 -0.0916  0.1947
13856SOL    HW241747   0.081   5.605   5.248  0.4976 -2.0614  0.7339
13857SOL     OW41748   6.957   6.279   1.320  0.1096 -0.0954 -0.1001
13857SOL    HW141749   6.895   6.202   1.321 -0.7938  0.6082 -0.7551
13857SOL    HW241750   7.000   6.287   1.230  2.1492 -1.3204  0.6856
13858SOL     OW41751   3.660   0.680   2.461  0.0533 -0.2422 -0.2451
13858SOL    HW141752   3.702   0.753   2.408 -0.9194  1.1562  0.8180
13858SOL    HW241753   3.684   0.591   2.422  0.3330  0.6825 -2.2718
13859SOL     OW41754   6.698   0.148   2.808  0.2132  0.3490 -0.2905
13859SOL    HW141755   6.726   0.052   2.806 -0.9913 -0.0140 -0.2137
13859SOL    HW241756   6.600   0.155   2.792  0.1218  1.5105  0.6391
13860SOL     OW41757   3.173   6.069   1.364 -0.0138 -0.0714 -0.1078
13860SOL    HW141758   3.230   5.995   1.327  0.5702  0.2848  0.0694
13860SOL    HW241759   3.225   6.120   1.432 -1.3260 -1.1890  1.8165
13861SOL     OW41760   3.355   6.984   6.573 -0.5039  0.5898 -0.4269
13861SOL    HW141761   3.293   6.906   6.568 -0.4368  0.5732 -1.1234
13861SOL    HW241762   3.319   7.060   6.519 -1.0640  1.4111  1.0475
13862SOL     OW41763   3.839   5.247   3.202 -0.3985  0.0972 -0.2388
13862SOL    HW141764   3.848   5.205   3.111  0.7562  1.1035 -0.6211
13862SOL    HW241765   3.859   5.345   3.195 -2.4396  0.6459  0.7329
13863SOL     OW41766   6.328   6.232   0.149  0.2362 -0.0050  0.4420
13863SOL    HW141767   6.324   6.287   0.232  0.6485  1.2396 -0.3322
13863SOL    HW241768   6.409   6.256   0.096  1.2641 -2.4362  0.7608
13864SOL     OW41769   2.827   7.900   8.475 -0.2971  0.0190 -0.0697
13864SOL    HW141770   2.848   7.929   8.382  1.8589 -0.3917  0.2281
13864SOL    HW241771   2.753   7.956   8.513  0.0247  1.3737 -1.3887
13865SOL     OW41772   8.730   0.593   8.025 -0.3355  0.4591 -0.2969
13865SOL    HW141773   8.691   0.635   8.106 -2.4944  1.1897 -1.6476
13865SOL    HW241774   8.819   0.635   8.005 -1.3611  2.7667 -0.2806
13866SOL     OW41775   0.595   1.756   6.971 -0.3513 -0.3062  0.6338
13866SOL    HW141776   0.648   1.699   7.033 -1.2443  0.2014  1.9078
13866SOL    HW241777   0.530   1.698   6.920  0.0671 -0.6608  0.4917
13867SOL     OW41778   7.634   4.781   6.247 -0.2089 -0.3249  0.1398
13867SOL    HW141779   7.635   4.871   6.203 -0.0137 -0.1076  0.5792
13867SOL    HW241780   7.539   4.753   6.260 -0.2958  0.3008  0.9521
13868SOL     OW41781   0.156   0.171   3.648  0.0128 -0.2281  0.1913
13868SOL    HW141782   0.253   0.179   3.671 -0.1095  0.8446  0.3599
13868SOL    HW241783   0.106   0.249   3.684 -0.9333 -0.7908  0.1434
13869SOL     OW41784   2.753   0.450   6.331  0.2351 -0.2654 -0.2872
13869SOL    HW141785   2.775   0.362   6.373  0.6027  0.2667  0.6905
13869SOL    HW241786   2.674   0.441   6.271 -1.1975 -0.7983  1.6077
13870SOL     OW41787   4.125   0.497   5.149 -0.0328 -0.2249 -0.4212
13870SOL    HW141788   4.072   0.423   5.109 -1.2192  0.6948 -0.5878
13870SOL    HW241789   4.222   0.471   5.151 -0.3287 -1.4634 -1.1540
13871SOL     OW41790   2.098   3.088   3.521 -0.1671  0.4802  0.1274
13871SOL    HW141791   2.109   3.026   3.443  0.9021  1.4662 -0.5377
13871SOL    HW241792   2.002   3.089   3.549 -0.3298 -0.9454 -0.2783
13872SOL     OW41793   4.862   4.638   8.511  0.9163 -0.3002 -0.2770
13872SOL    HW141794   4.773   4.623   8.555  0.8118 -0.8325 -0.6605
13872SOL    HW241795   4.915   4.553   8.514  0.7128 -0.4936 -1.6250
13873SOL     OW41796   3.897   6.328   4.691 -0.3073 -0.1721 -0.2467
13873SOL    HW141797   3.900   6.294   4.786  0.1611 -1.4850 -0.7134
13873SOL    HW241798   3.985   6.366   4.666  0.9199 -3.4724 -1.4051
13874SOL     OW41799   6.493   6.525   2.278  0.2531 -0.0292  0.7317
13874SOL    HW141800   6.447   6.509   2.190  1.3462  0.4139  0.0638
13874SOL    HW241801   6.425   6.553   2.346 -0.4201  1.0871 -0.3513
13875SOL     OW41802   2.284   4.862   7.554 -0.0114  0.8468 -0.0698
13875SOL    HW141803   2.340   4.932   7.600 -0.3077  0.9406  0.1497
13875SOL    HW241804   2.280   4.781   7.613  2.2533 -0.2648 -1.3031
13876SOL     OW41805   3.052   5.571   1.352  0.0009  0.3156  0.4477
13876SOL    HW141806   3.005   5.502   1.297 -0.4213  0.6609  0.3788
13876SOL    HW241807   3.120   5.526   1.410  0.7300 -0.0215 -0.6289
13877SOL     OW41808   6.231   2.019   8.246 -0.0359 -0.0678  0.0499
13877SOL    HW141809   6.146   2.047   8.291  0.5432  1.4003  0.2743
13877SOL    HW241810   6.273   1.944   8.297  0.4080  1.3075  1.7788
13878SOL     OW41811   1.011   7.302   4.899 -0.0655 -0.1448 -0.1433
13878SOL    HW141812   1.082   7.290   4.829 -1.2037 -2.4033 -1.0373
13878SOL    HW241813   1.032   7.243   4.977 -0.4284 -0.0583  0.0203
13879SOL     OW41814   6.395   3.924   5.524  0.0148 -0.2133  1.0102
13879SOL    HW141815   6.467   3.855   5.518 -1.5761 -1.7902 -1.9508
13879SOL    HW241816   6.349   3.917   5.613  2.1725 -0.4599  2.1728
13880SOL     OW41817   7.020   3.807   5.636 -0.1897  0.1844  0.4740
13880SOL    HW141818   7.064   3.749   5.568 -0.6401 -0.3053  0.5894
13880SOL    HW241819   6.947   3.755   5.682 -0.4484  0.7717  0.7394
13881SOL     OW41820   3.276   4.156   6.022 -0.0657 -0.2965 -0.1293
13881SOL    HW141821   3.364   4.170   5.977 -0.5277  0.0839 -0.9272
13881SOL    HW241822   3.289   4.155   6.121  0.9849 -1.2419 -0.2464
13882SOL     OW41823   0.485   8.208   0.714  0.0998  0.1216  0.4017
13882SOL    HW141824   0.391   8.212   0.681  0.8001  1.3598 -1.6451
13882SOL    HW241825   0.547   8.241   0.643  2.0500 -0.1026  1.8951
13883SOL     OW41826   7.437   1.779   8.793  0.1132 -0.2533 -0.0499
13883SOL    HW141827   7.367   1.770   8.863  1.4649  0.8247  1.5187
13883SOL    HW241828   7.470   1.873   8.790  1.2688 -0.6560 -0.9548
13884SOL     OW41829   4.282   8.313   6.386  0.3492  0.2026 -0.1729
13884SOL    HW141830   4.365   8.279   6.429  1.9212  2.8627 -0.9012
13884SOL    HW241831   4.210   8.322   6.455  1.2178 -0.3882  0.8412
13885SOL     OW41832   7.519   8.471   5.250 -0.2570  0.2905 -0.2658
13885SOL    HW141833   7.604   8.518   5.275  0.4930 -0.5541 -1.1813
13885SOL    HW241834   7.513   8.461   5.151 -1.0693 -0.3338 -0.1706
13886SOL     OW41835   7.631   7.095   7.824  0.3714 -0.3155  0.3140
13886SOL    HW141836   7.617   7.169   7.890  0.5192 -0.6441  0.7205
13886SOL    HW241837   7.583   7.013   7.856 -0.0890 -0.2997 -0.3129
13887SOL     OW41838   7.538   0.773   0.013 -0.0510  0.0272  0.4836
13887SOL    HW141839   7.595   0.707   0.061  2.4440  1.4048 -0.3929
13887SOL    HW241840   7.573   0.786  -0.080 -0.4835  2.4497  0.5809
13888SOL     OW41841   2.437   8.222   0.879 -0.3227 -0.2987 -0.8188
13888SOL    HW141842   2.464   8.147   0.819  2.9249  0.4535 -0.4891
13888SOL    HW241843   2.467   8.202   0.972  2.7495  2.2676 -1.1053
13889SOL     OW41844   0.736   6.232   8.591  0.1145  0.1147  0.3744
13889SOL    HW141845   0.722   6.271   8.681 -2.4413 -0.7264  0.4086
13889SOL    HW241846   0.767   6.304   8.528 -0.9823  1.3944  1.2366
13890SOL     OW41847   7.052   1.121   5.014 -0.5442 -0.0674  0.3262
13890SOL    HW141848   7.145   1.087   5.025 -0.5830  0.2980  1.9043
13890SOL    HW241849   6.987   1.049   5.040 -0.6989 -0.0172  0.0894
13891SOL     OW41850   1.499   0.443   0.350  0.0326  0.1592  0.6381
13891SOL    HW141851   1.576   0.486   0.302  1.0384 -0.5648  1.5669
13891SOL    HW241852   1.451   0.382   0.287 -0.0097  0.8896 -0.0516
13892SOL     OW41853   0.409   0.928   4.582 -0.5110 -0.1470 -0.0739
13892SOL    HW141854   0.362   1.013   4.557 -1.6954 -0.3611  1.3452
13892SOL    HW241855   0.497   0.925   4.534 -0.7739  1.4989 -0.7619
13893SOL     OW41856   6.616   1.153   3.147 -0.3714  0.2669 -0.4127
13893SOL    HW141857   6.609   1.103   3.233  1.7886 -0.6991 -0.7204
13893SOL    HW241858   6.642   1.248   3.166 -0.5258  0.2238  0.0297
13894SOL     OW41859   1.970   8.413   4.536 -0.7941  0.0345  0.3528
13894SOL    HW141860   2.005   8.479   4.470  0.5923 -1.0221 -0.0158
13894SOL    HW241861   1.940   8.461   4.618 -0.9327  1.2136 -0.3577
13895SOL     OW41862   6.116   1.841   7.606  0.3933 -0.1576  0.0912
13895SOL    HW141863   6.061   1.766   7.569  1.6693 -0.6340 -0.9319
13895SOL    HW241864   6.212   1.828   7.579  0.8001  1.3242  0.7377
13896SOL     OW41865   7.670   0.187   8.392  0.1915 -0.2973 -0.3242
13896SOL    HW141866   7.753   0.138   8.365 -0.0322 -0.1450 -1.3326
13896SOL    HW241867   7.633   0.147   8.476  0.5554 -1.2088 -0.5848
13897SOL     OW41868   5.642   4.381   1.908  0.1031  0.0322 -0.2033
13897SOL    HW141869   5.645   4.454   1.840 -0.0241 -0.6515 -0.9575
13897SOL    HW241870   5.635   4.421   1.999  1.2569  1.0002 -0.5051
13898SOL     OW41871   3.885   4.624   4.451 -0.5765  0.3152  0.1518
13898SOL    HW141872   3.882   4.651   4.355  0.7434  1.6121  0.4291
13898SOL    HW241873   3.799   4.650   4.495 -1.0436  0.0503 -0.5721
13899SOL     OW41874   3.939   7.650   2.052  0.5235  0.3752 -0.2870
13899SOL    HW141875   3.964   7.678   2.145 -0.5689 -0.9109  0.4288
13899SOL    HW241876   4.022   7.627   2.001  1.1365  1.0655  0.3634
13900SOL     OW41877   6.806   5.152   0.282  0.0413 -0.2129 -0.2465
13900SOL    HW141878   6.849   5.158   0.372 -0.1737 -0.0737 -0.1537
13900SOL    HW241879   6.707   5.166   0.291  0.0974  0.4028 -0.5839
13901SOL     OW41880   8.676   1.320   6.120 -0.4609  0.4572 -0.2452
13901SOL    HW141881   8.699   1.231   6.081  0.6341  0.6945 -0.1650
13901SOL    HW241882   8.583   1.318   6.155 -2.1449  0.6381 -4.1665
13902SOL     OW41883   5.249   7.918   5.247  0.5493  0.5781  0.2733
13902SOL    HW141884   5.290   7.887   5.161  1.3341 -0.1291  0.8958
13902SOL    HW241885   5.260   7.848   5.317 -0.8801  0.7759  0.7238
13903SOL     OW41886   7.518   3.604   0.594  0.6333 -0.3547 -0.5077
13903SOL    HW141887   7.546   3.700   0.585 -1.7906  0.4742 -0.0453
13903SOL    HW241888   7.421   3.596   0.570  0.6071 -2.5909  0.1660
13904SOL     OW41889   5.916   5.050   0.814  0.1454  0.2261  0.0208
13904SOL    HW141890   5.918   4.957   0.851  0.4058  0.7147  1.3137
13904SOL    HW241891   5.897   5.047   0.716 -1.1750 -1.1210  0.2808
13905SOL     OW41892   6.202   5.752   7.730 -0.2363 -0.2309 -0.5534
13905SOL    HW141893   6.285   5.806   7.719  0.4717 -0.6462  2.2330
13905SOL    HW241894   6.138   5.801   7.790 -0.8168 -1.1733 -0.3874
13906SOL     OW41895   5.170   7.922   1.271  0.3237  0.5554  0.0966
13906SOL    HW141896   5.100   7.993   1.277  0.1394  0.3477  0.4153
13906SOL    HW241897   5.134   7.837   1.310  0.9218  0.5774  0.7018
13907SOL     OW41898   1.782   4.509   5.122  0.0946 -0.2601 -0.1498
13907SOL    HW141899   1.762   4.445   5.196 -0.0077 -0.3540 -0.2577
13907SOL    HW241900   1.808   4.597   5.160 -0.4024 -0.1755 -0.0054
13908SOL     OW41901   0.803   5.906   1.194  0.1126  0.1191 -0.3348
13908SOL    HW141902   0.845   5.840   1.256  1.6642 -0.8963 -2.3236
13908SOL    HW241903   0.771   5.858   1.112  0.0414  1.6604 -1.2354
13909SOL     OW41904   4.594   8.861   4.121 -0.4102 -0.0158 -0.3311
13909SOL    HW141905   4.580   8.870   4.023  1.6512  1.5337 -0.5476
13909SOL    HW241906   4.612   8.951   4.161 -0.2603 -0.7279  1.2911
13910SOL     OW41907   6.968   7.069   7.603  0.2142 -0.7195 -1.0611
13910SOL    HW141908   6.871   7.062   7.626  0.0522 -2.6201 -2.0575
13910SOL    HW241909   6.979   7.128   7.523 -0.1843 -0.8863 -1.2407
13911SOL     OW41910   8.436   0.755   6.000 -0.3134  0.2114 -0.0219
13911SOL    HW141911   8.342   0.727   5.983 -0.7424  2.5033 -1.9447
13911SOL    HW241912   8.437   0.836   6.059  0.5382 -0.4529  0.9011
13912SOL     OW41913   7.852   8.248   1.422  0.0713  0.1374 -0.3622
13912SOL    HW141914   7.843   8.176   1.491  0.9765  1.4427  1.2074
13912SOL    HW241915   7.903   8.214   1.344  1.9894 -0.4884  1.0878
13913SOL     OW41916   2.934   5.886   6.101 -0.4446  0.5383 -0.0510
13913SOL    HW141917   3.007   5.821   6.077  0.1188  0.8069  0.8691
13913SOL    HW241918   2.879   5.906   6.020 -1.0152 -1.5512 -0.2304
13914SOL     OW41919   1.534   8.314   6.114 -0.3726 -0.3714  0.5104
13914SOL    HW141920   1.435   8.312   6.105 -0.2712 -1.7313 -0.5823
13914SOL    HW241921   1.576   8.304   6.024  0.7669  0.2022  0.9603
13915SOL     OW41922   1.051   5.241   4.291  0.1484  0.1444 -0.1550
13915SOL    HW141923   1.034   5.324   4.238 -1.3579 -0.1975 -0.2412
13915SOL    HW241924   1.035   5.160   4.233  0.6200 -0.2175  0.2118
13916SOL     OW41925   4.677   0.331   4.539  0.0311 -0.0840  0.0678
13916SOL    HW141926   4.579   0.318   4.552 -0.1066  0.1457 -0.6640
13916SOL    HW241927   4.692   0.393   4.462  0.7630 -0.7287 -0.3252
13917SOL     OW41928   1.499   7.539   7.879 -0.3809  0.1082  0.1868
13917SOL    HW141929   1.507   7.630   7.837 -5.0044  0.1054 -1.3194
13917SOL    HW241930   1.431   7.543   7.952 -0.8420 -2.1721 -0.0554
13918SOL     OW41931   0.627   2.189   6.437  0.4563  0.0015  0.2876
13918SOL    HW141932   0.706   2.249   6.448 -0.2051  0.9064  0.2842
13918SOL    HW241933   0.573   2.189   6.521  0.8244 -1.1786  0.5428
13919SOL     OW41934   7.908   6.663   5.592  0.0095  0.4082 -0.3627
13919SOL    HW141935   7.977   6.661   5.519  1.9765  0.3165  1.3802
13919SOL    HW241936   7.864   6.574   5.599  0.2021  0.2512 -1.0863
13920SOL     OW41937   2.704   7.445   8.367  0.0187 -0.0775 -0.6314
13920SOL    HW141938   2.739   7.466   8.458 -1.2043  0.0738 -0.1720
13920SOL    HW241939   2.729   7.518   8.303  2.5750 -1.1049 -0.9216
13921SOL     OW41940   7.976   6.196   5.915  0.0937 -0.2119 -0.8694
13921SOL    HW141941   7.892   6.241   5.885  0.2510  0.0464 -0.9283
13921SOL    HW241942   7.972   6.181   6.014 -0.0628 -0.2904 -0.8870
13922SOL     OW41943   2.200   0.652   2.671  0.2996  0.7694 -0.1609
13922SOL    HW141944   2.271   0.582   2.683 -1.1747 -0.6575  0.6444
13922SOL    HW241945   2.234   0.724   2.611  2.2118 -0.1583 -0.2657
13923SOL     OW41946   8.608   5.270   2.503 -0.0415 -0.4852  0.5137
13923SOL    HW141947   8.583   5.260   2.407 -1.5886  0.7748  0.7433
13923SOL    HW241948   8.547   5.336   2.547  0.3888 -1.3110  2.4650
13924SOL     OW41949   0.779   6.300   2.865 -0.2182  0.0356  0.3975
13924SOL    HW141950   0.824   6.329   2.780  0.1096 -0.5004  0.3815
13924SOL    HW241951   0.741   6.380   2.911  0.3815  0.4527  0.1893
13925SOL     OW41952   2.483   3.098   1.319 -0.4820 -0.1638  0.0625
13925SOL    HW141953   2.506   3.187   1.277  3.8386 -0.5335  1.1135
13925SOL    HW241954   2.493   3.026   1.250 -1.2308 -0.0985 -0.1207
13926SOL     OW41955   7.259   0.845   5.856 -0.3076  0.7509  0.2634
13926SOL    HW141956   7.290   0.855   5.950  0.8885 -0.6678  0.0525
13926SOL    HW241957   7.161   0.828   5.854 -0.5775  2.0264  1.1506
13927SOL     OW41958   4.730   0.236   3.925 -0.3922 -0.4557 -0.5221
13927SOL    HW141959   4.676   0.308   3.882 -2.4170 -0.7809  1.2640
13927SOL    HW241960   4.721   0.151   3.872 -1.6992 -0.5008 -0.2622
13928SOL     OW41961   6.927   8.253   8.280  0.2746  0.1456 -0.1222
13928SOL    HW141962   6.877   8.170   8.256 -1.0802  0.3924  1.6905
13928SOL    HW241963   6.968   8.242   8.371  0.4935  1.2854 -0.0712
13929SOL     OW41964   0.405   3.631   6.677  0.1116  0.2878  0.5050
13929SOL    HW141965   0.349   3.622   6.596  0.0138 -1.2506  0.7083
13929SOL    HW241966   0.435   3.540   6.707  1.6819  0.9640  1.1124
13930SOL     OW41967   3.973   1.180   7.437  0.4775 -0.2778 -0.1184
13930SOL    HW141968   3.991   1.111   7.508  0.1513 -0.0108  0.2286
13930SOL    HW241969   3.918   1.254   7.475  0.2651 -0.1466 -0.6619
13931SOL     OW41970   7.897   6.144   5.037  0.2510  0.1874  0.5273
13931SOL    HW141971   7.908   6.242   5.025 -2.1608  0.9265  3.3125
13931SOL    HW241972   7.905   6.120   5.134 -1.9688 -1.8867  0.3181
13932SOL     OW41973   6.981   2.050   6.883  0.5794 -0.0620  0.0605
13932SOL    HW141974   7.032   2.100   6.953  0.1379 -0.0869  0.4071
13932SOL    HW241975   7.040   2.033   6.804  1.2382 -0.4736  0.6301
13933SOL     OW41976   5.166   3.744   0.858  0.2424  0.2770  0.3668
13933SOL    HW141977   5.224   3.770   0.781 -0.6664 -2.0123 -1.1973
13933SOL    HW241978   5.222   3.706   0.932  0.8409 -2.6207 -1.4152
13934SOL     OW41979   6.397   7.472   7.896  0.3872 -0.4574  0.3976
13934SOL    HW141980   6.396   7.482   7.996  0.6502  1.6732  0.2370
13934SOL    HW241981   6.317   7.517   7.857  0.7187 -0.5486 -0.4137
13935SOL     OW41982   6.149   2.049   0.098 -0.2555  0.4908 -0.1093
13935SOL    HW141983   6.063   2.088   0.131 -0.4355 -1.1107  1.4135
13935SOL    HW241984   6.226   2.091   0.146 -0.2546  1.0027 -0.5484
13936SOL     OW41985   6.703   3.419   5.928  0.1064 -0.6636 -0.4841
13936SOL    HW141986   6.638   3.448   5.858 -0.8557  1.5141  1.1605
13936SOL    HW241987   6.653   3.383   6.007  0.8103  1.1456  0.8591
13937SOL     OW41988   6.183   4.793   8.750 -0.6360  0.3932  0.3103
13937SOL    HW141989   6.124   4.715   8.729 -0.0711 -0.2445  1.0322
13937SOL    HW241990   6.206   4.841   8.665 -2.0151  0.5327  0.0004
13938SOL     OW41991   2.123   7.090   2.417 -0.3781 -0.4969 -0.2671
13938SOL    HW141992   2.205   7.142   2.392 -1.2492  2.3265  2.1933
13938SOL    HW241993   2.042   7.137   2.384 -1.1627 -1.2777  0.4966
13939SOL     OW41994   8.642   2.114   1.336 -0.1074  0.2526  0.1090
13939SOL    HW141995   8.700   2.150   1.263 -0.2486  0.7061  0.2169
13939SOL    HW241996   8.675   2.024   1.364 -0.6826 -0.4002 -1.2401
13940SOL     OW41997   3.271   4.717   4.494  0.5237 -0.2363 -0.5890
13940SOL    HW141998   3.317   4.633   4.520 -1.6900 -0.8456  1.8445
13940SOL    HW241999   3.286   4.787   4.565 -0.7425  0.1197 -0.6447
13941SOL     OW42000   1.356   5.124   0.538 -0.1039  0.5431 -0.7770
13941SOL    HW142001   1.424   5.109   0.609 -0.1198 -0.9593 -1.0479
13941SOL    HW242002   1.363   5.218   0.503  1.3273  0.6271 -0.2968
13942SOL     OW42003   0.329   4.019   4.147 -0.1058 -0.2354 -0.0535
13942SOL    HW142004   0.426   4.033   4.167 -0.3995  1.0269  0.6130
13942SOL    HW242005   0.288   3.963   4.219 -0.1491  0.3468  0.3811
13943SOL     OW42006   8.804   5.804   7.402  0.3218  0.3586 -0.4969
13943SOL    HW142007   8.764   5.862   7.474 -0.9179 -0.4390 -0.5098
13943SOL    HW242008   8.751   5.815   7.318 -1.8085 -2.8408  0.2295
13944SOL     OW42009   5.761   8.548   7.579 -0.2663  0.0145 -0.0886
13944SOL    HW142010   5.695   8.563   7.505  1.8273  0.0126 -2.0769
13944SOL    HW242011   5.801   8.456   7.571 -2.6771 -1.5582  3.4262
13945SOL     OW42012   2.410   4.990   5.172  0.1301  0.4373 -0.0422
13945SOL    HW142013   2.393   5.023   5.265  2.5374  0.0637  0.6187
13945SOL    HW242014   2.398   4.891   5.169  2.5354  0.0523  0.6349
13946SOL     OW42015   5.270   4.128   7.100  0.0521 -0.0698  0.4055
13946SOL    HW142016   5.287   4.191   7.175  0.6443  0.4726 -0.1772
13946SOL    HW242017   5.243   4.179   7.019  1.8999 -0.4169 -0.4702
13947SOL     OW42018   2.546   7.346   1.025  0.0030 -0.9539  0.7155
13947SOL    HW142019   2.453   7.315   1.040 -0.2364 -0.7328 -0.2610
13947SOL    HW242020   2.557   7.438   1.063 -0.4820 -0.5594 -0.0771
13948SOL     OW42021   6.054   1.962   3.297  0.5242  0.3353 -0.1151
13948SOL    HW142022   5.959   1.991   3.306 -0.0840 -1.3667 -0.5484
13948SOL    HW242023   6.069   1.927   3.205  1.3971 -0.0024  0.1467
13949SOL     OW42024   2.420   7.493   7.690 -0.1451  0.1069  0.1790
13949SOL    HW142025   2.519   7.482   7.690 -0.3243 -2.2174  1.5518
13949SOL    HW242026   2.380   7.441   7.615 -0.4161 -0.0906  0.4587
13950SOL     OW42027   4.068   4.602   1.207 -0.2604 -0.6488 -0.0651
13950SOL    HW142028   4.139   4.535   1.188  0.1395  0.3465 -2.5680
13950SOL    HW242029   4.109   4.693   1.217 -0.7782 -0.6627  3.3258
13951SOL     OW42030   8.809   8.173   8.355 -0.1477 -0.0525 -0.3657
13951SOL    HW142031   8.743   8.128   8.416  0.3312  0.8392  0.8688
13951SOL    HW242032   8.872   8.105   8.319 -2.1340 -1.0403 -2.1561
13952SOL     OW42033   2.397   2.849   3.979  0.1388 -0.0774 -0.0269
13952SOL    HW142034   2.330   2.921   3.959  1.7612  1.1052 -1.5472
13952SOL    HW242035   2.438   2.865   4.068  0.0096  0.4922 -0.0674
13953SOL     OW42036   2.760   1.853   4.648 -0.3501 -0.6366 -0.3775
13953SOL    HW142037   2.713   1.772   4.684  0.7999 -0.6049  1.3349
13953SOL    HW242038   2.747   1.929   4.711  0.9401 -0.2909 -0.5028
13954SOL     OW42039   2.553   6.906   7.795  0.2960  0.2360 -0.0790
13954SOL    HW142040   2.604   6.902   7.881 -0.5468  0.4273  0.4426
13954SOL    HW242041   2.524   6.814   7.769 -2.0398  0.4419  1.4672
13955SOL     OW42042   6.613   8.293   8.667 -0.1751  0.0309  0.0928
13955SOL    HW142043   6.680   8.321   8.598 -1.3030  0.9531 -0.6646
13955SOL    HW242044   6.639   8.332   8.755 -0.1569  1.0789 -0.3611
13956SOL     OW42045   7.712   4.169   7.984 -0.5843 -0.3285  0.0270
13956SOL    HW142046   7.713   4.261   7.944  1.9245 -0.2243  0.1865
13956SOL    HW242047   7.650   4.167   8.062  0.7605  1.8245  1.2430
13957SOL     OW42048   5.446   4.998   3.616  0.1166 -0.1574 -0.6561
13957SOL    HW142049   5.483   5.018   3.706  1.1690  0.4163 -1.1943
13957SOL    HW242050   5.361   5.049   3.602 -0.0484 -0.2497 -0.0014
13958SOL     OW42051   3.623   5.512   6.694  0.2030 -0.3204 -0.1187
13958SOL    HW142052   3.681   5.478   6.768 -0.3695 -0.8113  0.1097
13958SOL    HW242053   3.598   5.436   6.634 -0.6836 -0.2166  0.1121
13959SOL     OW42054   0.383   7.359   6.739  0.0029 -0.5574 -0.1513
13959SOL    HW142055   0.302   7.355   6.681 -0.9926  1.2158  1.0199
13959SOL    HW242056   0.357   7.342   6.834  0.7033  1.4393  0.4521
13960SOL     OW42057   7.686   5.745   6.607  0.0070  0.3140  0.2680
13960SOL    HW142058   7.595   5.743   6.565 -0.1354 -1.4121  0.5978
13960SOL    HW242059   7.685   5.691   6.691  1.1400  0.9759  0.7261
13961SOL     OW42060   4.962   7.813   2.170  0.2500  0.4238 -0.0897
13961SOL    HW142061   4.935   7.727   2.213  0.6693 -0.2223 -1.0761
13961SOL    HW242062   5.056   7.807   2.138  0.2432  1.2051 -0.2966
13962SOL     OW42063   1.050   0.602   0.358  0.2900 -0.2824  0.9512
13962SOL    HW142064   0.955   0.575   0.377  0.3052  0.3311  1.9459
13962SOL    HW242065   1.051   0.689   0.310  0.2688 -1.6399 -1.7075
13963SOL     OW42066   1.789   7.628   3.548 -0.2078 -0.0107 -0.7038
13963SOL    HW142067   1.704   7.631   3.496 -0.9309 -0.9360  0.3671
13963SOL    HW242068   1.867   7.638   3.486 -1.0932  1.0403 -1.6749
13964SOL     OW42069   5.154   6.723   8.318  0.4272 -0.1635 -0.1016
13964SOL    HW142070   5.201   6.790   8.261 -0.5979 -2.4605 -4.0289
13964SOL    HW242071   5.055   6.735   8.309  0.2441 -1.0900  0.5478
13965SOL     OW42072   2.823   7.475   4.997  0.0311 -0.2715 -0.3561
13965SOL    HW142073   2.807   7.556   5.053  0.4406 -0.2831 -0.2194
13965SOL    HW242074   2.781   7.395   5.041 -0.0023 -0.2081 -0.2726
13966SOL     OW42075   3.335   5.857   1.263 -0.2727  0.0057 -0.6733
13966SOL    HW142076   3.285   5.810   1.190 -2.8101 -0.8103  1.4190
13966SOL    HW242077   3.406   5.796   1.300  0.0500 -0.1186 -1.4765
13967SOL     OW42078   1.010   7.613   7.319 -0.5994 -0.1648 -0.2464
13967SOL    HW142079   1.061   7.652   7.243 -0.7704 -2.0311 -1.4042
13967SOL    HW242080   1.057   7.531   7.353 -1.8321 -0.8347 -0.0784
13968SOL     OW42081   6.888   0.985   4.510  0.1877  0.3127 -0.2202
13968SOL    HW142082   6.886   0.956   4.606 -0.8766  1.0045 -0.0149
13968SOL    HW242083   6.803   1.033   4.488  1.2608  1.9899 -0.9470
13969SOL     OW42084   0.341   2.093   2.146 -0.4583 -0.4899 -0.3124
13969SOL    HW142085   0.391   2.163   2.199 -1.1356  0.3861 -0.7972
13969SOL    HW242086   0.358   2.003   2.185  0.5160 -0.0696  0.2789
13970SOL     OW42087   8.005   3.893   7.166  0.4299  0.3962  0.1321
13970SOL    HW142088   8.050   3.942   7.092  1.4970 -0.3843  0.2332
13970SOL    HW242089   8.070   3.876   7.240 -0.0198 -0.7484  0.2993
13971SOL     OW42090   8.844   7.012   0.360 -0.0587 -0.3240 -0.0845
13971SOL    HW142091   8.767   6.952   0.340 -0.0775 -0.3239 -0.0130
13971SOL    HW242092   8.814   7.087   0.418  0.0409 -0.4434  0.1240
13972SOL     OW42093   0.880   7.516   7.771 -0.0369 -0.3834 -0.2387
13972SOL    HW142094   0.955   7.572   7.807 -0.9348 -0.1240  1.3303
13972SOL    HW242095   0.800   7.525   7.831 -0.6202 -2.3612 -0.6522
13973SOL     OW42096   5.369   1.002   5.951 -0.0303 -0.1394 -0.2823
13973SOL    HW142097   5.375   0.947   6.034 -0.4941 -0.0850 -0.2102
13973SOL    HW242098   5.384   1.098   5.973 -2.1907  0.1732  0.1106
13974SOL     OW42099   5.545   2.260   0.094 -0.3250  0.2269  0.6960
13974SOL    HW142100   5.492   2.256   0.178  0.4781 -2.2633  1.1484
13974SOL    HW242101   5.616   2.331   0.102  0.0038 -0.2576  2.2835
13975SOL     OW42102   0.359   2.978   3.625  0.2873 -0.0633  0.1079
13975SOL    HW142103   0.366   2.979   3.725 -2.3454 -0.7611  0.3783
13975SOL    HW242104   0.307   3.058   3.595  1.0730  0.1468 -0.7362
13976SOL     OW42105   2.925   3.616   0.977 -0.1036 -0.2003 -0.0350
13976SOL    HW142106   2.899   3.712   0.966 -1.0883 -0.5700 -1.1387
13976SOL    HW242107   2.870   3.575   1.050 -0.1384 -0.0950 -0.0011
13977SOL     OW42108   6.745   7.968   4.326  0.3314 -0.2612  0.9234
13977SOL    HW142109   6.721   8.031   4.399 -0.9833  0.0578  0.2651
13977SOL    HW242110   6.764   7.878   4.364  3.4397  0.7463  2.0061
13978SOL     OW42111   1.325   3.918   3.590 -0.3817  0.4239  0.2226
13978SOL    HW142112   1.313   3.885   3.496  0.2202  1.5951 -0.3011
13978SOL    HW242113   1.247   3.975   3.615 -0.6046  0.0055  0.4887
13979SOL     OW42114   2.833   4.234   4.174  0.1815 -0.4383  0.6297
13979SOL    HW142115   2.805   4.216   4.079 -0.6785 -0.1488  0.8192
13979SOL    HW242116   2.862   4.329   4.183 -0.6382 -0.2005  0.8535
13980SOL     OW42117   6.014   1.854   4.003 -0.1835  0.0257  0.3675
13980SOL    HW142118   5.924   1.829   4.038 -0.6836  1.0432 -0.1737
13980SOL    HW242119   6.083   1.834   4.073 -0.9060 -0.0521  1.0772
13981SOL     OW42120   7.220   5.837   7.900 -0.1677  0.5001 -0.5722
13981SOL    HW142121   7.230   5.918   7.843 -0.0654  0.0622 -1.1868
13981SOL    HW242122   7.142   5.848   7.961 -0.6057  0.7547 -1.1683
13982SOL     OW42123   7.011   2.405   1.022 -0.7151  0.2722  0.3818
13982SOL    HW142124   7.050   2.314   1.034 -1.1291  0.0770  0.2533
13982SOL    HW242125   7.085   2.473   1.024 -0.4006 -0.0658  0.4387
13983SOL     OW42126   7.759   0.123   6.919 -0.5453  0.2696  0.3902
13983SOL    HW142127   7.798   0.033   6.937  1.0594  1.1082  1.2762
13983SOL    HW242128   7.704   0.152   6.998 -1.6318 -0.1968 -0.1735
13984SOL     OW42129   0.056   1.136   1.654  0.4413 -0.3973 -0.1492
13984SOL    HW142130   0.143   1.185   1.651  0.3788 -0.0774  1.8074
13984SOL    HW242131  -0.008   1.186   1.712 -0.1762 -1.9565  0.5723
13985SOL     OW42132   3.246   0.243   5.489 -0.3020 -0.0837  0.2436
13985SOL    HW142133   3.177   0.176   5.516 -0.3283 -0.5085 -0.8051
13985SOL    HW242134   3.312   0.199   5.428  0.7443  0.3873  0.9962
13986SOL     OW42135   1.375   0.730   6.453 -0.5806  0.6198  0.1248
13986SOL    HW142136   1.393   0.743   6.355  2.3400  2.9760  0.8584
13986SOL    HW242137   1.338   0.815   6.491  0.2680  0.4075  1.4543
13987SOL     OW42138   8.304   1.904   8.209  0.2512  0.7196  0.1917
13987SOL    HW142139   8.334   1.817   8.170  1.5949  0.3189  1.9721
13987SOL    HW242140   8.351   1.920   8.296  0.3347  3.4318 -0.2528
13988SOL     OW42141   1.368   5.696   5.355 -0.4791 -0.2963  0.0140
13988SOL    HW142142   1.353   5.793   5.342 -2.0739 -0.4799  0.3021
13988SOL    HW242143   1.370   5.649   5.267 -1.3829 -0.2159 -0.0566
13989SOL     OW42144   6.886   5.186   6.330 -0.2073  0.1142  0.7674
13989SOL    HW142145   6.800   5.137   6.344 -0.8069  1.1416  0.7640
13989SOL    HW242146   6.934   5.145   6.252 -1.0603  0.0063  0.2763
13990SOL     OW42147   3.152   8.093   2.572  0.2155 -0.2171 -0.1035
13990SOL    HW142148   3.168   8.002   2.534  0.5880  0.3385 -1.3309
13990SOL    HW242149   3.055   8.116   2.564  0.2024 -0.3142 -0.2284
13991SOL     OW42150   4.725   5.804   6.574 -0.5539 -0.1568  0.2327
13991SOL    HW142151   4.744   5.896   6.541 -0.7520 -0.4039 -0.6000
13991SOL    HW242152   4.767   5.737   6.512 -0.9076 -0.6340  0.5031
13992SOL     OW42153   3.390   3.804   0.265 -0.4115  0.0826 -0.8739
13992SOL    HW142154   3.375   3.706   0.256  2.2573 -0.8757  2.7398
13992SOL    HW242155   3.301   3.850   0.275 -1.6644 -2.3129 -0.0567
13993SOL     OW42156   3.511   2.285   3.226  0.1698  0.7206 -0.5638
13993SOL    HW142157   3.447   2.303   3.301  2.0341 -1.0724  1.6239
13993SOL    HW242158   3.467   2.230   3.156 -0.6984 -0.6031  0.9553
13994SOL     OW42159   0.404   6.164   4.166  0.8513 -0.0092 -0.0791
13994SOL    HW142160   0.396   6.239   4.100 -0.5304  0.5194  0.6338
13994SOL    HW242161   0.482   6.180   4.226  0.8167  0.6409 -0.1999
13995SOL     OW42162   1.370   6.862   2.255 -0.2369 -0.6071 -0.0613
13995SOL    HW142163   1.315   6.782   2.280  1.1675 -1.8112 -0.6085
13995SOL    HW242164   1.464   6.847   2.284  0.2073  0.5297 -0.8453
13996SOL     OW42165   7.596   8.585   2.529 -0.2096  0.3039  0.3117
13996SOL    HW142166   7.545   8.628   2.454  0.7941  2.0513  0.5838
13996SOL    HW242167   7.694   8.590   2.511 -0.0021 -0.4820  1.1198
13997SOL     OW42168   0.543   1.212   8.011  0.2637  0.3641  0.2839
13997SOL    HW142169   0.597   1.228   7.929  0.7139 -1.9113  0.0850
13997SOL    HW242170   0.577   1.131   8.059 -2.3554 -0.6060  0.6584
13998SOL     OW42171   6.985   6.803   2.784  0.2948 -0.0325 -0.1170
13998SOL    HW142172   6.925   6.847   2.851  1.0233  0.5027  0.1942
13998SOL    HW242173   7.079   6.805   2.816  0.6452  0.1261 -1.1066
13999SOL     OW42174   7.310   3.137   2.105 -0.2482  0.5615  0.1533
13999SOL    HW142175   7.319   3.204   2.178  0.1165  0.8514 -0.1519
13999SOL    HW242176   7.239   3.166   2.041 -0.6655  0.2375  0.4623
14000SOL     OW42177   4.886   1.137   3.040 -0.0714  0.2755 -0.0909
14000SOL    HW142178   4.810   1.156   2.978 -1.3454 -1.4850  0.8503
14000SOL    HW242179   4.935   1.055   3.010 -1.1575 -1.0308  1.5670
14001SOL     OW42180   2.856   8.439   5.894  0.8861 -0.0928  0.3672
14001SOL    HW142181   2.812   8.528   5.909  2.1709  0.2565  2.2922
14001SOL    HW242182   2.800   8.386   5.830 -0.8086  1.4176  0.4929
14002SOL     OW42183   4.289   0.594   3.819  0.0541  0.0055  0.6562
14002SOL    HW142184   4.356   0.614   3.890  1.5555  1.2244 -1.0417
14002SOL    HW242185   4.335   0.580   3.732 -1.8551  0.2773 -0.4496
14003SOL     OW42186   2.539   2.433   7.878  0.0608  0.3501  0.4859
14003SOL    HW142187   2.498   2.369   7.813  1.1597  0.5307 -0.4188
14003SOL    HW242188   2.527   2.398   7.971 -0.5933 -0.4546  0.1135
14004SOL     OW42189   0.412   2.073   3.035 -0.4480 -0.2937  0.5326
14004SOL    HW142190   0.317   2.088   3.061 -0.1826  1.6474  0.4951
14004SOL    HW242191   0.417   1.997   2.970 -2.0266 -0.0389  0.0725
14005SOL     OW42192   3.968   1.442   6.335  0.4813 -0.2776  0.2048
14005SOL    HW142193   3.950   1.461   6.239 -0.2873 -0.2843  0.3428
14005SOL    HW242194   3.960   1.344   6.352 -1.6738 -0.0563  0.7173
14006SOL     OW42195   0.649   3.459   7.717 -0.1783  0.5390  0.1470
14006SOL    HW142196   0.614   3.416   7.800  1.0628 -0.2817  0.2650
14006SOL    HW242197   0.633   3.558   7.722  0.8086  0.6560  1.8459
14007SOL     OW42198   6.389   6.039   7.057 -0.6218 -0.1744  0.2864
14007SOL    HW142199   6.482   6.051   7.093 -0.8234  0.3130  0.6558
14007SOL    HW242200   6.348   5.958   7.098 -0.8205  0.3282  1.1172
14008SOL     OW42201   6.331   7.794   2.364 -0.2850 -0.0449 -0.3045
14008SOL    HW142202   6.429   7.817   2.370 -0.0299 -1.1058 -0.2140
14008SOL    HW242203   6.304   7.743   2.445 -1.0535  0.6718 -0.0937
14009SOL     OW42204   2.495   4.715   7.942  0.0625 -0.2172  0.1274
14009SOL    HW142205   2.443   4.659   8.007  0.4587  0.6041  1.1853
14009SOL    HW242206   2.557   4.775   7.992  1.2434 -0.3915 -1.0705
14010SOL     OW42207   5.486   0.258   2.450  0.3807 -0.0119  0.0950
14010SOL    HW142208   5.461   0.188   2.383  0.0740  1.4444 -1.3571
14010SOL    HW242209   5.403   0.300   2.486  0.5856  1.6113 -1.2473
14011SOL     OW42210   0.270   2.500   1.777  0.0678 -0.1376 -0.0198
14011SOL    HW142211   0.280   2.572   1.847 -3.3988 -0.5773  1.1132
14011SOL    HW242212   0.317   2.417   1.808  1.5812  0.6918  0.0362
14012SOL     OW42213   7.916   3.860   7.555  0.3983  0.3781 -0.1386
14012SOL    HW142214   7.985   3.876   7.484  0.8482  1.7787  0.5747
14012SOL    HW242215   7.961   3.858   7.645 -0.2571 -0.6408  0.1912
14013SOL     OW42216   4.804   2.390   1.957 -0.1847  0.1329 -0.3332
14013SOL    HW142217   4.797   2.489   1.958 -0.0355  0.1429 -0.2422
14013SOL    HW242218   4.837   2.358   2.046  0.7191  0.0767 -0.6800
14014SOL     OW42219   7.488   0.134   1.620 -0.1148 -0.2420  0.1273
14014SOL    HW142220   7.405   0.129   1.675 -0.1855  0.1008  0.0473
14014SOL    HW242221   7.474   0.193   1.541  0.6932  1.1904  0.9965
14015SOL     OW42222   3.628   6.865   5.856  0.5851  0.1871 -0.0027
14015SOL    HW142223   3.556   6.916   5.810 -1.2448  0.1636  2.6107
14015SOL    HW242224   3.603   6.768   5.858 -0.0937  0.3576  2.1115
14016SOL     OW42225   2.755   6.591   5.610 -0.2849  0.0859 -0.1066
14016SOL    HW142226   2.711   6.581   5.521  0.0143 -0.2503 -0.2179
14016SOL    HW242227   2.763   6.502   5.654 -3.1941  0.5418  1.6192
14017SOL     OW42228   0.457   0.422   6.585 -0.2153  0.2340  0.0548
14017SOL    HW142229   0.401   0.372   6.519 -0.8131 -1.0028  1.4419
14017SOL    HW242230   0.448   0.521   6.568  0.6251 -0.0363 -2.4394
14018SOL     OW42231   5.669   6.468   0.837 -0.1033  0.0568  0.0466
14018SOL    HW142232   5.672   6.369   0.847  1.0344  0.2925  2.8314
14018SOL    HW242233   5.762   6.505   0.838 -0.4453  1.1487 -1.9084
14019SOL     OW42234   2.953   1.198   4.097  0.4729  0.6211  0.3593
14019SOL    HW142235   2.964   1.115   4.151  0.9164 -0.2010 -0.9343
14019SOL    HW242236   2.857   1.225   4.096 -0.0632 -1.1650 -0.9818
14020SOL     OW42237   2.249   5.595   3.391 -0.4669 -0.5143  0.2144
14020SOL    HW142238   2.336   5.644   3.394 -0.6290 -0.2612  1.0553
14020SOL    HW242239   2.254   5.514   3.450 -0.8825 -0.3620  0.4651
14021SOL     OW42240   0.280   1.940   5.642 -0.2258 -0.0251  0.3912
14021SOL    HW142241   0.334   1.997   5.703  3.9252 -0.1340 -2.7084
14021SOL    HW242242   0.257   1.992   5.559 -0.9049 -1.3695 -0.3090
14022SOL     OW42243   6.071   0.210   1.328  0.4539 -0.2517 -0.5329
14022SOL    HW142244   6.161   0.215   1.373  1.3426  1.7740 -2.3581
14022SOL    HW242245   6.002   0.250   1.388  1.2272  0.4828 -0.1098
14023SOL     OW42246   5.341   7.240   0.530 -0.3184  0.6852 -0.1824
14023SOL    HW142247   5.305   7.178   0.599  1.4177  0.2034  0.3530
14023SOL    HW242248   5.269   7.302   0.499 -2.2339 -1.7676 -0.9772
14024SOL     OW42249   0.290   6.183   7.654  0.1854  0.4151 -0.3528
14024SOL    HW142250   0.278   6.130   7.570  0.7529 -0.9053  0.3614
14024SOL    HW242251   0.349   6.261   7.636  0.3890  0.0815 -1.1750
14025SOL     OW42252   0.730   5.263   0.420 -0.9176 -0.2398 -0.1243
14025SOL    HW142253   0.819   5.237   0.457 -0.0869  0.5574 -1.4972
14025SOL    HW242254   0.665   5.274   0.495 -0.1106 -1.7082  0.8315
14026SOL     OW42255   4.099   2.589   4.516 -0.0846 -0.0755  0.0850
14026SOL    HW142256   4.101   2.507   4.459  0.5811 -0.3698  0.5228
14026SOL    HW242257   4.004   2.616   4.532 -0.2955 -0.4835 -0.4537
14027SOL     OW42258   8.833   6.362   1.288  0.0867 -0.1091 -0.0145
14027SOL    HW142259   8.894   6.438   1.270  1.8351 -1.1052  1.3376
14027SOL    HW242260   8.756   6.394   1.344  2.2079  0.3048  2.9388
14028SOL     OW42261   7.490   3.616   2.291 -0.0404 -0.0012 -0.0404
14028SOL    HW142262   7.506   3.621   2.390  1.4842  1.3298 -0.3064
14028SOL    HW242263   7.572   3.579   2.246 -0.2933  0.4620 -0.9064
14029SOL     OW42264   4.213   0.629   5.958  0.4297 -0.2482  0.3991
14029SOL    HW142265   4.144   0.653   6.027  0.1103 -1.0766  0.3767
14029SOL    HW242266   4.289   0.694   5.962 -0.4042  0.7561  0.3456
14030SOL     OW42267   5.502   2.264   5.620 -0.2144 -0.1139  0.2037
14030SOL    HW142268   5.481   2.359   5.594  0.2514  0.0865  0.5580
14030SOL    HW242269   5.590   2.238   5.580 -0.1543 -0.2645  0.4373
14031SOL     OW42270   5.940   8.784   1.248  0.1197 -0.1401 -0.9042
14031SOL    HW142271   5.872   8.753   1.181  1.0333 -2.6732 -0.7691
14031SOL    HW242272   6.020   8.820   1.200 -0.0156 -0.1580 -1.1478
14032SOL     OW42273   7.681   8.011   5.826 -0.1063  0.3283 -0.9049
14032SOL    HW142274   7.689   7.934   5.889  0.5946  1.7060  0.7800
14032SOL    HW242275   7.594   8.059   5.844  0.1392  0.7814 -0.9127
14033SOL     OW42276   0.256   2.625   5.673 -0.5812  0.1811  0.5204
14033SOL    HW142277   0.281   2.531   5.652  1.9602  0.3754  2.2507
14033SOL    HW242278   0.336   2.684   5.661 -2.5748  2.5609 -2.4924
14034SOL     OW42279   1.500   4.904   8.138 -0.0829 -0.4478  0.3130
14034SOL    HW142280   1.415   4.903   8.085 -0.0344 -0.9007  0.2431
14034SOL    HW242281   1.478   4.918   8.235 -0.2155 -0.2704  0.2579
14035SOL     OW42282   7.744   8.626   5.253  0.1247 -0.3288  0.0146
14035SOL    HW142283   7.832   8.626   5.300  0.0588  0.2606  0.1568
14035SOL    HW242284   7.695   8.711   5.276 -0.3669 -0.5349 -0.2644
14036SOL     OW42285   1.311   0.260   6.575 -0.4276  0.2352 -0.2172
14036SOL    HW142286   1.408   0.251   6.596 -0.1072 -0.4884 -1.8862
14036SOL    HW242287   1.262   0.178   6.606  0.2356 -1.3780 -3.0622
14037SOL     OW42288   8.115   3.660   8.095  0.0026  0.0244 -0.3194
14037SOL    HW142289   8.152   3.666   8.002  0.3871  2.5929 -0.0829
14037SOL    HW242290   8.021   3.694   8.096 -0.2300 -0.6030  0.1531
14038SOL     OW42291   1.717   4.706   0.141  0.0565 -0.0721  0.4680
14038SOL    HW142292   1.654   4.754   0.202  0.0098  1.4364 -0.7116
14038SOL    HW242293   1.740   4.764   0.063  0.3928 -1.7918 -0.7946
14039SOL     OW42294   2.490   5.556   6.006 -0.6149 -0.3265  0.2418
14039SOL    HW142295   2.491   5.656   6.009 -1.3936 -0.3008  0.0862
14039SOL    HW242296   2.506   5.520   6.098 -1.0410 -0.0365  0.4392
14040SOL     OW42297   6.330   3.591   1.302  0.2641  0.0607  0.3006
14040SOL    HW142298   6.325   3.497   1.335 -0.1763  0.2729  0.8531
14040SOL    HW242299   6.239   3.633   1.308  0.4042  0.4445 -0.1788
14041SOL     OW42300   5.965   0.065   8.551 -0.5825  1.0176  0.1268
14041SOL    HW142301   5.972   0.107   8.460  0.0840  0.0841 -0.2658
14041SOL    HW242302   5.928   0.132   8.615  1.2553  2.5133 -0.2885
14042SOL     OW42303   2.787   1.040   6.794  0.3993  0.1168 -0.1698
14042SOL    HW142304   2.815   1.104   6.721 -0.2478  1.3616  0.6400
14042SOL    HW242305   2.688   1.033   6.795  0.4427 -0.5009  0.1151
14043SOL     OW42306   6.445   6.828   1.362 -0.3008 -0.9048 -0.0058
14043SOL    HW142307   6.368   6.783   1.316 -0.1078 -0.9504 -0.2864
14043SOL    HW242308   6.413   6.870   1.447 -0.6726 -0.7669 -0.2121
14044SOL     OW42309   6.162   0.743   8.238  0.5113  0.2382  0.1051
14044SOL    HW142310   6.207   0.688   8.308 -0.3817  1.6707  1.8881
14044SOL    HW242311   6.065   0.721   8.235  0.7532 -0.8256 -1.7573
14045SOL     OW42312   1.138   8.002   5.116 -0.3642  0.4151  0.0983
14045SOL    HW142313   1.077   8.025   5.193 -1.6772  2.5089 -1.4332
14045SOL    HW242314   1.217   8.063   5.118  0.9488 -1.2421  1.1719
14046SOL     OW42315   2.359   5.456   1.133 -0.0066  0.2800 -0.4109
14046SOL    HW142316   2.402   5.372   1.100  1.5630 -0.1014  2.2943
14046SOL    HW242317   2.348   5.520   1.057  0.9732 -1.4649 -2.1014
14047SOL     OW42318   0.702   6.711   4.239 -0.2358  0.3141  0.4237
14047SOL    HW142319   0.692   6.811   4.241 -1.5383  0.1938  1.0325
14047SOL    HW242320   0.788   6.686   4.284 -0.0439  1.1485  0.5403
14048SOL     OW42321   6.661   2.634   2.516  0.0740 -0.2874 -0.1564
14048SOL    HW142322   6.645   2.732   2.505 -0.5950 -0.3048  0.6299
14048SOL    HW242323   6.589   2.594   2.572  0.7511 -1.0989  0.1546
14049SOL     OW42324   5.346   1.340   5.918  0.1849  0.2853 -0.2250
14049SOL    HW142325   5.430   1.341   5.972  0.9854 -0.7915 -1.3819
14049SOL    HW242326   5.334   1.428   5.873  1.0553  0.2487 -0.5483
14050SOL     OW42327   4.901   6.195   5.485 -0.0840 -0.0145  0.3442
14050SOL    HW142328   4.842   6.273   5.506 -0.1283  0.3907 -1.1610
14050SOL    HW242329   4.872   6.154   5.399  1.5219 -0.1103 -0.1853
14051SOL     OW42330   3.767   2.732   2.106 -0.5128 -0.4641  0.4895
14051SOL    HW142331   3.802   2.804   2.046 -0.8029  0.0111  0.8812
14051SOL    HW242332   3.674   2.709   2.079 -0.2409 -1.0664  0.0387
14052SOL     OW42333   4.973   2.000   8.650 -0.6164  0.4620 -0.1953
14052SOL    HW142334   4.961   2.098   8.633 -1.0579  0.4101 -0.2012
14052SOL    HW242335   5.048   1.986   8.714  0.2258  0.7337 -1.1099
14053SOL     OW42336   5.194   4.036   4.254  0.1570  0.3007  0.0933
14053SOL    HW142337   5.167   4.130   4.276  1.7424  0.4438  1.6390
14053SOL    HW242338   5.198   3.983   4.339 -0.4779 -1.1224 -0.7339
14054SOL     OW42339   1.124   0.780   5.934  0.5379  0.9935  0.0725
14054SOL    HW142340   1.166   0.783   6.025 -0.2000  0.4132  0.4422
14054SOL    HW242341   1.026   0.793   5.943  0.5333  1.5192 -0.7088
14055SOL     OW42342   4.460   3.724   4.020 -0.2129  0.2569  0.2062
14055SOL    HW142343   4.411   3.690   4.100 -0.1922  0.4965  0.3205
14055SOL    HW242344   4.515   3.650   3.981 -1.0267 -0.1492 -0.2083
14056SOL     OW42345   7.764   2.341   4.601 -0.0697 -0.3548 -0.5860
14056SOL    HW142346   7.687   2.300   4.649  0.5973  1.2519  2.0371
14056SOL    HW242347   7.849   2.317   4.647  0.6129  1.2950 -0.9164
14057SOL     OW42348   1.467   2.391   1.028  0.9322  0.8468 -0.0901
14057SOL    HW142349   1.474   2.485   0.992  0.5909  0.3078 -1.6540
14057SOL    HW242350   1.544   2.337   0.996 -0.5616 -0.2666 -2.1080
14058SOL     OW42351   5.007   4.149   5.634  0.6274  0.4245 -0.2376
14058SOL    HW142352   4.972   4.230   5.587 -3.6684 -0.1729  1.4002
14058SOL    HW242353   5.067   4.177   5.709  1.4576  1.8539 -1.3948
14059SOL     OW42354   3.843   1.013   6.983 -0.2282 -0.2710 -0.4361
14059SOL    HW142355   3.815   1.008   7.079 -0.0598 -1.9851 -0.4482
14059SOL    HW242356   3.902   1.093   6.970 -0.0099 -0.1858  0.9488
14060SOL     OW42357   2.033   0.009   0.535 -0.1065 -0.1769  0.5525
14060SOL    HW142358   2.055  -0.072   0.590 -0.8454 -1.5242 -1.0585
14060SOL    HW242359   2.116   0.047   0.496  0.2228 -0.2933  1.1304
14061SOL     OW42360   7.371   0.516   2.988  0.0617 -0.0661 -0.0359
14061SOL    HW142361   7.324   0.597   2.954  0.3774  0.9289  1.7555
14061SOL    HW242362   7.373   0.518   3.088 -0.3742 -2.5722  0.0834
14062SOL     OW42363   2.370   4.539   7.415 -0.1923  0.7927 -0.1505
14062SOL    HW142364   2.410   4.621   7.375  0.0932  0.9012  0.3570
14062SOL    HW242365   2.415   4.458   7.376 -0.9155  0.8448 -1.1355
14063SOL     OW42366   1.604   7.708   7.108  0.4806 -0.4884 -0.0262
14063SOL    HW142367   1.626   7.806   7.110  0.0049 -0.3471 -1.0218
14063SOL    HW242368   1.506   7.696   7.122  0.4092 -0.7676 -0.7557
14064SOL     OW42369   4.538   8.149   1.226 -0.6020  0.2927 -0.1989
14064SOL    HW142370   4.551   8.234   1.176  0.7098 -0.6334 -1.5196
14064SOL    HW242371   4.493   8.082   1.167 -1.6063  0.0440  0.8153
14065SOL     OW42372   2.899   2.429   3.091  0.1141 -0.1319  0.0359
14065SOL    HW142373   2.971   2.373   3.131  0.7949  0.9033  0.2911
14065SOL    HW242374   2.890   2.408   2.994  0.9536 -0.0673 -0.0563
14066SOL     OW42375   2.310   7.462   1.272 -0.1713  0.6287  0.1751
14066SOL    HW142376   2.290   7.463   1.174 -2.6600 -1.0725  0.5539
14066SOL    HW242377   2.242   7.518   1.320 -1.1788 -1.2943  1.1434
14067SOL     OW42378   5.891   6.532   8.078  0.0500 -0.0541 -0.2662
14067SOL    HW142379   5.899   6.460   8.009 -2.7441  1.1882 -2.0694
14067SOL    HW242380   5.920   6.619   8.037 -0.1042  0.4447  0.6725
14068SOL     OW42381   7.633   5.869   1.690 -0.7892  0.0967  0.4059
14068SOL    HW142382   7.591   5.805   1.753 -1.8859 -0.7960 -1.1659
14068SOL    HW242383   7.610   5.963   1.716 -0.3990 -0.1958  1.8612
14069SOL     OW42384   2.391   3.496   2.394 -0.2047 -0.5724  0.1057
14069SOL    HW142385   2.334   3.542   2.462  1.2302 -0.4566  1.2934
14069SOL    HW242386   2.448   3.427   2.439  3.1747  1.6897 -0.2994
14070SOL     OW42387   7.932   2.610   8.270 -0.0048  0.3460  0.1846
14070SOL    HW142388   7.854   2.548   8.264 -1.3079  1.6501  2.2438
14070SOL    HW242389   7.900   2.704   8.265  1.5681  0.9059  0.1481
14071SOL     OW42390   2.221   1.638   1.047 -0.1028  0.1816  0.4641
14071SOL    HW142391   2.161   1.655   0.970  3.2704 -0.9831 -2.7458
14071SOL    HW242392   2.262   1.724   1.078 -0.6937  0.5340  0.2778
14072SOL     OW42393   8.686   6.577   8.827  0.0320  0.4164 -0.0555
14072SOL    HW142394   8.745   6.498   8.816  0.2749  0.7803 -1.5193
14072SOL    HW242395   8.728   6.657   8.783  0.0359  1.5034  1.8077
14073SOL     OW42396   4.734   0.642   5.711  0.1314  0.3191 -0.4021
14073SOL    HW142397   4.726   0.738   5.739 -0.3963 -0.0738  0.8680
14073SOL    HW242398   4.722   0.635   5.612  3.4089  1.9362 -1.0782
14074SOL     OW42399   4.221   8.589   1.094  0.6176 -0.0701 -0.2464
14074SOL    HW142400   4.203   8.512   1.033 -2.5341 -1.3851  2.0563
14074SOL    HW242401   4.186   8.674   1.053 -4.2725 -1.3640  0.6605
14075SOL     OW42402   7.855   1.579   0.319 -0.0003  0.1770  0.6947
14075SOL    HW142403   7.872   1.644   0.392  0.0922  0.1637  0.6860
14075SOL    HW242404   7.938   1.571   0.262 -0.1647  0.3996  0.4228
14076SOL     OW42405   5.235   8.358   3.010  0.2222  0.0986  0.0550
14076SOL    HW142406   5.169   8.283   3.014 -0.8581  0.9204 -1.2996
14076SOL    HW242407   5.282   8.365   3.098 -0.0771 -1.7570  0.4129
14077SOL     OW42408   4.632   5.341   5.253  0.0573 -0.2628 -0.1169
14077SOL    HW142409   4.717   5.351   5.303  0.6988 -1.0624 -1.0028
14077SOL    HW242410   4.555   5.368   5.311  0.9518  1.2176  0.4437
14078SOL     OW42411   4.267   3.565   5.368 -0.1466  0.2081 -0.4351
14078SOL    HW142412   4.281   3.513   5.453 -4.0636  1.7034  1.3373
14078SOL    HW242413   4.268   3.502   5.291 -0.0508 -1.7781  1.0894
14079SOL     OW42414   3.100   5.395   5.418  0.0600  0.1315 -0.0181
14079SOL    HW142415   3.040   5.456   5.470  1.2700  0.4759  1.0114
14079SOL    HW242416   3.045   5.322   5.377 -0.9776  0.0378  1.4541
14080SOL     OW42417   3.739   7.301   6.213  0.4754  0.2931 -0.1036
14080SOL    HW142418   3.726   7.400   6.202  0.6923  0.4050  0.6148
14080SOL    HW242419   3.824   7.274   6.168  1.2982  0.7268  1.1428
14081SOL     OW42420   7.742   8.521   8.498  0.0559  0.1032 -0.3030
14081SOL    HW142421   7.652   8.487   8.469 -0.4890  1.3328 -0.1401
14081SOL    HW242422   7.784   8.455   8.560 -0.0839 -1.1637 -1.5023
14082SOL     OW42423   2.644   6.748   6.416 -0.2910 -0.1411 -0.1767
14082SOL    HW142424   2.587   6.667   6.405  0.3738 -0.7649  0.8024
14082SOL    HW242425   2.730   6.735   6.366 -0.3666  0.1377 -0.3764
14083SOL     OW42426   0.014   8.289   3.231 -0.2153 -0.4619 -0.2773
14083SOL    HW142427  -0.030   8.200   3.217 -0.9935 -0.1758  0.2662
14083SOL    HW242428   0.095   8.278   3.289 -0.8733 -0.6862  0.6263
14084SOL     OW42429   8.148   5.242   3.792 -0.0431  0.5545 -0.3726
14084SOL    HW142430   8.116   5.151   3.766  0.7083  0.1283  0.1333
14084SOL    HW242431   8.133   5.255   3.890  2.5622 -0.2314  0.2038
14085SOL     OW42432   4.708   6.612   8.418  0.2014  0.0832  0.3362
14085SOL    HW142433   4.769   6.539   8.390 -0.1408 -0.0622 -0.0412
14085SOL    HW242434   4.740   6.652   8.504  1.2418  0.5228 -0.2456
14086SOL     OW42435   7.444   7.590   5.439 -0.5107 -0.0841  0.4436
14086SOL    HW142436   7.464   7.497   5.408 -1.0214 -0.3786  0.9729
14086SOL    HW242437   7.424   7.648   5.360 -1.3580 -0.7139  0.1829
14087SOL     OW42438   4.649   0.925   7.266  0.3490  0.0730 -0.0456
14087SOL    HW142439   4.591   0.928   7.348  0.9541  2.2926  0.3647
14087SOL    HW242440   4.703   0.841   7.266 -0.4791 -0.4830  1.2487
14088SOL     OW42441   5.452   3.607   0.695 -0.1918  0.3040  0.3869
14088SOL    HW142442   5.528   3.608   0.630  0.4706 -0.3503  1.1143
14088SOL    HW242443   5.486   3.633   0.786 -1.3772  2.6019  0.2296
14089SOL     OW42444   7.353   1.032   8.115 -0.2127 -0.3281  0.0089
14089SOL    HW142445   7.449   1.047   8.136  1.3085 -0.9433 -5.1944
14089SOL    HW242446   7.301   1.115   8.136  1.6963  0.5835  1.4413
14090SOL     OW42447   8.454   6.004   3.762 -0.5617 -0.2371  0.2634
14090SOL    HW142448   8.451   6.101   3.738 -0.1062 -0.1559  0.5232
14090SOL    HW242449   8.548   5.971   3.755 -0.8073 -0.8109 -0.4012
14091SOL     OW42450   2.791   5.752   3.637 -0.2258 -0.2153  0.1745
14091SOL    HW142451   2.790   5.819   3.563  0.1539  0.2231  0.5564
14091SOL    HW242452   2.836   5.668   3.607 -0.0467 -0.0276 -0.0837
14092SOL     OW42453   2.108   6.916   6.194  0.7700 -0.3278 -0.7399
14092SOL    HW142454   2.091   6.848   6.123  0.2016 -0.8105 -0.1490
14092SOL    HW242455   2.192   6.894   6.243  1.2940  0.1430 -1.4153
14093SOL     OW42456   8.777   7.012   4.064  0.1034  0.2211 -0.0851
14093SOL    HW142457   8.811   6.952   4.136 -1.4366  1.1236  1.4609
14093SOL    HW242458   8.854   7.053   4.015  1.1712 -0.7581  0.7274
14094SOL     OW42459   3.105   1.139   3.863 -0.0835 -0.7217  0.7448
14094SOL    HW142460   3.049   1.162   3.943  0.0158 -1.2530  0.9743
14094SOL    HW242461   3.128   1.222   3.813  1.3966 -0.1399  2.2965
14095SOL     OW42462   0.024   3.034   1.905  0.3634 -0.4435  0.3128
14095SOL    HW142463   0.092   2.964   1.884 -0.7879 -1.1083 -1.5461
14095SOL    HW242464  -0.057   2.990   1.945  0.4201  0.1283  1.0796
14096SOL     OW42465   0.970   3.462   0.898 -0.3342  0.0280 -0.4819
14096SOL    HW142466   0.954   3.437   0.994  0.2208 -1.7651 -0.8160
14096SOL    HW242467   0.900   3.528   0.869 -0.1601  1.0679  1.3009
14097SOL     OW42468   4.649   3.615   4.658  0.1907  0.1006  0.6003
14097SOL    HW142469   4.651   3.691   4.722  0.0464  1.3483 -0.8247
14097SOL    HW242470   4.743   3.591   4.632  0.2100  0.3212  0.4607
14098SOL     OW42471   5.012   4.438   5.548 -0.5694 -0.4391  0.3345
14098SOL    HW142472   5.041   4.405   5.459 -0.6465  0.2292  0.0574
14098SOL    HW242473   4.912   4.449   5.549 -0.6237 -0.8918  0.6619
14099SOL     OW42474   4.164   7.361   5.886  0.0489 -0.4012 -0.7124
14099SOL    HW142475   4.210   7.422   5.950  1.1365 -2.1309  0.2311
14099SOL    HW242476   4.223   7.283   5.866 -1.9564 -2.0612 -0.4710
14100SOL     OW42477   3.729   2.681   7.992 -0.2629 -0.2419  0.0067
14100SOL    HW142478   3.656   2.619   8.024 -0.8876  1.4572  2.1163
14100SOL    HW242479   3.755   2.743   8.066  0.4573  1.9220 -1.9367
14101SOL     OW42480   8.610   6.109   7.045  0.1677  0.2953 -0.2684
14101SOL    HW142481   8.603   6.126   7.144 -0.9479  0.6797 -0.4018
14101SOL    HW242482   8.676   6.172   7.005  1.9345 -0.9930  0.4800
14102SOL     OW42483   3.864   7.594   3.358  0.0118  0.0297  0.3114
14102SOL    HW142484   3.921   7.631   3.285  1.7146 -2.4536  0.2719
14102SOL    HW242485   3.768   7.599   3.331  0.4281  1.2523 -1.0697
14103SOL     OW42486   4.531   1.705   1.868 -0.3361  0.4279  0.4890
14103SOL    HW142487   4.519   1.747   1.778 -0.1655  0.3182  0.4158
14103SOL    HW242488   4.619   1.733   1.907  0.7042 -1.4342 -0.4123
14104SOL     OW42489   7.982   4.010   4.037  0.3996 -0.1814 -0.2351
14104SOL    HW142490   7.890   4.015   4.077  0.0898 -0.3756 -0.9221
14104SOL    HW242491   7.986   4.067   3.955  1.6856  2.1361  1.2850
14105SOL     OW42492   8.253   3.748   0.827 -0.2603 -0.0570  0.5558
14105SOL    HW142493   8.324   3.809   0.792 -0.6490  0.8301  1.2796
14105SOL    HW242494   8.262   3.739   0.926 -1.9707  1.1867  0.8713
14106SOL     OW42495   7.871   4.111   2.752 -0.0572 -0.3253 -0.0536
14106SOL    HW142496   7.876   4.015   2.781 -1.5485 -0.1806  0.7789
14106SOL    HW242497   7.888   4.171   2.830 -1.6030  0.0563  0.0382
14107SOL     OW42498   6.675   8.020   0.010  0.4767 -0.4090  0.7366
14107SOL    HW142499   6.698   7.959  -0.066  0.9945  1.3788 -0.6000
14107SOL    HW242500   6.576   8.028   0.017  0.4185 -0.9236  0.5386
14108SOL     OW42501   8.321   4.957   4.619  0.3507  0.0713 -0.1822
14108SOL    HW142502   8.347   5.051   4.640  0.5125  0.1806 -0.8431
14108SOL    HW242503   8.269   4.956   4.533 -0.6112 -0.3102  0.3885
14109SOL     OW42504   6.946   1.175   7.410 -0.0509 -0.3706 -0.3987
14109SOL    HW142505   7.022   1.111   7.405 -0.6152 -0.9609 -2.3881
14109SOL    HW242506   6.884   1.159   7.333 -1.2294  1.2991  0.1457
14110SOL     OW42507   7.494   7.856   3.344  0.2508  0.1914  0.3413
14110SOL    HW142508   7.435   7.908   3.282 -0.8181  0.2026  1.3359
14110SOL    HW242509   7.523   7.913   3.420  2.8565  0.6499 -0.8769
14111SOL     OW42510   7.001   7.607   6.558 -0.0115 -0.0046 -0.1926
14111SOL    HW142511   7.091   7.645   6.536 -0.3598  0.6325 -0.5310
14111SOL    HW242512   6.938   7.681   6.582 -1.1738 -0.1605 -2.4764
14112SOL     OW42513   3.122   5.931   2.416 -0.9266  0.4495  0.0929
14112SOL    HW142514   3.194   5.935   2.485 -1.8842  0.1048  1.1612
14112SOL    HW242515   3.086   5.837   2.411 -2.4543  0.9621  0.8447
14113SOL     OW42516   0.759   1.841   0.318  0.2947 -0.1923  0.0053
14113SOL    HW142517   0.760   1.931   0.274  1.6916 -0.1037  0.1906
14113SOL    HW242518   0.693   1.782   0.270 -0.5050  0.8541 -0.2259
14114SOL     OW42519   7.054   3.134   7.670  0.0125  0.0111  0.0664
14114SOL    HW142520   7.045   3.127   7.571  2.0842  0.6381 -0.2142
14114SOL    HW242521   7.109   3.057   7.704  0.2401  0.3882  0.5720
14115SOL     OW42522   2.119   6.656   8.029 -0.1165  0.2023 -0.6617
14115SOL    HW142523   2.066   6.740   8.036  0.2440  0.3389  0.6320
14115SOL    HW242524   2.139   6.637   7.932 -1.7044  0.6351 -1.1064
14116SOL     OW42525   2.388   0.839   5.518 -0.6867 -0.0738 -0.4788
14116SOL    HW142526   2.473   0.845   5.467 -0.5667 -1.3102 -0.4637
14116SOL    HW242527   2.386   0.908   5.590 -0.5974  1.2990 -1.7546
14117SOL     OW42528   7.973   0.756   0.697 -0.6574  0.3623 -0.0535
14117SOL    HW142529   8.067   0.789   0.696  0.6061 -2.8932  0.5867
14117SOL    HW242530   7.960   0.693   0.773 -3.3376  0.5323 -0.2650
14118SOL     OW42531   3.489   1.249   7.008  0.2517 -0.0552 -0.3638
14118SOL    HW142532   3.494   1.160   7.052 -0.4908 -0.2048 -0.5758
14118SOL    HW242533   3.530   1.243   6.916  1.1207  0.0772  0.0041
14119SOL     OW42534   0.460   7.095   0.191 -0.7751  0.4377 -0.1778
14119SOL    HW142535   0.361   7.087   0.202 -0.7236 -1.5577 -0.8438
14119SOL    HW242536   0.480   7.165   0.123 -1.6953  1.1015  0.2089
14120SOL     OW42537   7.894   4.866   0.389 -0.3267 -0.5445 -0.1768
14120SOL    HW142538   7.952   4.826   0.460  0.1014  0.3588 -0.0076
14120SOL    HW242539   7.930   4.842   0.299  0.7113  0.5701 -0.0717
14121SOL     OW42540   8.543   7.752   4.478 -0.1029  0.0240  0.4739
14121SOL    HW142541   8.638   7.778   4.496 -0.3211  0.5222  0.9317
14121SOL    HW242542   8.541   7.667   4.425  0.6511  0.9172 -1.0846
14122SOL     OW42543   6.846   7.409   0.777  0.4068  0.1048 -0.0700
14122SOL    HW142544   6.775   7.467   0.817  1.6097 -0.1140  2.6112
14122SOL    HW242545   6.812   7.315   0.768 -0.9941  0.7935 -2.8849
14123SOL     OW42546   8.295   0.383   6.201  0.2346 -0.1109  0.3413
14123SOL    HW142547   8.291   0.474   6.242 -1.1415 -0.2607  0.6139
14123SOL    HW242548   8.333   0.318   6.267  2.0328  0.3886 -0.1524
14124SOL     OW42549   7.831   6.160   2.309  0.3479 -0.0301  0.8523
14124SOL    HW142550   7.852   6.087   2.374  0.9888 -1.0036 -0.4019
14124SOL    HW242551   7.736   6.151   2.279  0.6765 -0.9339  0.0231
14125SOL     OW42552   2.034   8.536   0.880  0.0396  0.1825  0.1078
14125SOL    HW142553   2.026   8.565   0.975  1.8890  2.6804 -0.3758
14125SOL    HW242554   2.124   8.493   0.866 -0.1112  0.0629 -0.5438
14126SOL     OW42555   5.429   4.923   7.867  0.2036  0.0113 -0.2567
14126SOL    HW142556   5.394   4.879   7.950  0.6066  0.4187  0.1361
14126SOL    HW242557   5.529   4.928   7.871  0.2477 -0.2038 -0.8922
14127SOL     OW42558   7.430   8.554   0.181 -0.2250  0.3994  0.4136
14127SOL    HW142559   7.505   8.563   0.115 -0.8192  0.9271 -0.1922
14127SOL    HW242560   7.353   8.509   0.138  0.4604 -2.1412  1.6243
14128SOL     OW42561   7.537   1.961   3.811 -0.4267 -0.1121 -0.0616
14128SOL    HW142562   7.452   2.004   3.842 -0.4716  1.0134 -1.6398
14128SOL    HW242563   7.598   1.947   3.889 -1.7123 -0.1808  0.9663
14129SOL     OW42564   7.230   3.568   0.541 -0.2300 -0.1914 -0.0199
14129SOL    HW142565   7.167   3.586   0.616 -1.5246 -0.4553 -1.0001
14129SOL    HW242566   7.200   3.487   0.491  0.5237  0.0559 -0.9038
14130SOL     OW42567   3.549   8.389   3.817  0.0415  0.6611 -0.0379
14130SOL    HW142568   3.539   8.409   3.914 -1.0048  0.5616 -0.1071
14130SOL    HW242569   3.489   8.312   3.793 -0.3862  1.2501 -0.9308
14131SOL     OW42570   2.169   5.787   2.005 -0.0884  0.7163 -0.3845
14131SOL    HW142571   2.248   5.758   1.951 -1.1489 -1.7304 -0.7747
14131SOL    HW242572   2.089   5.795   1.946 -0.8751 -0.2763  0.4952
14132SOL     OW42573   6.377   2.901   6.531 -0.7947  0.0987 -0.2905
14132SOL    HW142574   6.451   2.853   6.483 -0.7931  1.1938 -1.4127
14132SOL    HW242575   6.325   2.956   6.467 -1.2543  1.0487  0.8544
14133SOL     OW42576   2.038   0.970   6.059  0.2728 -0.1942 -0.1487
14133SOL    HW142577   2.082   1.000   6.144  2.0918 -1.0224 -0.7369
14133SOL    HW242578   2.088   0.891   6.022 -0.3411  0.2604 -2.0835
14134SOL     OW42579   0.544   1.565   7.340 -0.1716  0.4525 -0.0222
14134SOL    HW142580   0.613   1.609   7.282  0.8647  0.3449  1.0865
14134SOL    HW242581   0.553   1.466   7.334  1.5978  0.4246  2.1609
14135SOL     OW42582   4.129   5.286   4.608  0.6593 -0.6143 -0.2200
14135SOL    HW142583   4.056   5.277   4.541  1.4316 -0.8076 -1.0491
14135SOL    HW242584   4.205   5.336   4.569  0.3196  1.1121  1.1961
14136SOL     OW42585   1.361   5.676   4.804 -0.1020 -0.2894  0.1485
14136SOL    HW142586   1.459   5.683   4.825  0.6550 -5.7965 -0.1003
14136SOL    HW242587   1.344   5.712   4.713  1.8560  0.1097 -0.1086
14137SOL     OW42588   4.681   2.274   6.330  0.4825  0.8769 -0.7661
14137SOL    HW142589   4.740   2.227   6.396  0.2977  0.6064 -0.7947
14137SOL    HW242590   4.671   2.370   6.358 -0.6924  0.4581  0.3685
14138SOL     OW42591   6.683   8.643   0.686  0.0916 -0.3738 -0.0908
14138SOL    HW142592   6.665   8.643   0.588 -0.9079 -0.8638  0.0825
14138SOL    HW242593   6.624   8.710   0.732 -0.1665 -0.8502  0.2893
14139SOL     OW42594   2.996   0.865   6.026  0.3977 -0.2510  0.0728
14139SOL    HW142595   3.074   0.802   6.022  0.0541 -0.6225 -1.1100
14139SOL    HW242596   2.990   0.915   5.940 -0.5633 -0.0809  0.2341
14140SOL     OW42597   3.569   4.105   6.090 -0.0355 -0.0529  0.4105
14140SOL    HW142598   3.547   4.055   6.006  0.3346  0.6870 -0.1379
14140SOL    HW242599   3.536   4.053   6.169 -0.7035 -0.5956 -0.2059
14141SOL     OW42600   1.053   6.991   2.893 -0.2668  0.6529 -0.1934
14141SOL    HW142601   1.080   6.937   2.813  0.7826 -0.4864  0.8937
14141SOL    HW242602   1.079   7.087   2.878 -1.2620  0.7167 -1.7320
14142SOL     OW42603   3.357   5.685   0.293  0.0325  0.7331 -0.5660
14142SOL    HW142604   3.381   5.590   0.276  0.9427  0.8123  0.2334
14142SOL    HW242605   3.378   5.740   0.212  0.5284  0.4390 -0.6369
14143SOL     OW42606   3.388   4.539   3.412  0.3529 -0.6673 -0.4489
14143SOL    HW142607   3.406   4.517   3.508  0.4377 -0.7644 -0.4875
14143SOL    HW242608   3.328   4.620   3.407 -0.4137 -1.2155 -0.2952
14144SOL     OW42609   8.549   4.223   5.395  0.1170 -0.4480 -0.0586
14144SOL    HW142610   8.633   4.197   5.349 -0.0139  0.0604 -0.6048
14144SOL    HW242611   8.474   4.229   5.329 -0.7220 -2.3571  0.6361
14145SOL     OW42612   1.798   8.576   1.092 -0.1813 -0.0259 -0.3753
14145SOL    HW142613   1.742   8.659   1.087 -0.6344 -0.2385  1.0150
14145SOL    HW242614   1.880   8.595   1.145 -0.5510 -0.6123  0.4094
14146SOL     OW42615   4.868   8.265   2.088 -0.0409  0.3427 -0.0398
14146SOL    HW142616   4.871   8.167   2.072  1.4057  0.2228  0.7688
14146SOL    HW242617   4.956   8.306   2.062 -0.6116  1.4074 -0.3249
14147SOL     OW42618   8.097   6.663   5.080 -0.2940 -0.4963  0.8353
14147SOL    HW142619   8.127   6.744   5.131  1.2315 -1.1273  0.9953
14147SOL    HW242620   8.117   6.676   4.983  0.4014 -0.8649  0.9239
14148SOL     OW42621   1.586   4.084   1.212 -0.7169  0.0571 -0.1200
14148SOL    HW142622   1.593   4.083   1.112 -1.1869  1.6993 -0.1998
14148SOL    HW242623   1.557   4.174   1.242  1.6389  0.3050  1.6848
14149SOL     OW42624   5.398   3.638   7.162  0.2817  1.0695  0.6423
14149SOL    HW142625   5.460   3.659   7.239  1.6535  1.2946 -0.4758
14149SOL    HW242626   5.451   3.635   7.078 -1.4561  2.5977 -0.5739
14150SOL     OW42627   6.843   6.473   5.044 -0.2398  0.0235  0.5057
14150SOL    HW142628   6.829   6.550   5.106 -0.3561  0.6833 -0.3183
14150SOL    HW242629   6.855   6.389   5.097  1.8392  0.8858  1.5070
14151SOL     OW42630   8.833   7.628   7.036 -0.3134 -0.0985  0.1999
14151SOL    HW142631   8.876   7.704   7.085 -0.6179 -1.0431  2.0454
14151SOL    HW242632   8.877   7.616   6.947  1.2869  0.7816  0.8343
14152SOL     OW42633   5.660   3.302   7.753  0.6442  0.7385 -0.6263
14152SOL    HW142634   5.570   3.313   7.795 -0.1258  0.2579 -2.0710
14152SOL    HW242635   5.690   3.207   7.763  1.2498  1.0122  0.3031
14153SOL     OW42636   2.378   3.209   4.226  0.1984 -0.6472 -0.2189
14153SOL    HW142637   2.430   3.205   4.141 -0.8632 -0.4447 -0.9098
14153SOL    HW242638   2.420   3.151   4.295  0.1925 -2.0781 -1.3870
14154SOL     OW42639   6.335   6.372   0.385 -0.3510  0.5930 -0.5243
14154SOL    HW142640   6.291   6.460   0.404  0.9433  0.7188  2.4491
14154SOL    HW242641   6.422   6.366   0.435 -0.8179 -2.7105  0.1561
14155SOL     OW42642   3.015   3.789   6.352 -0.0738 -0.0520  0.3788
14155SOL    HW142643   2.919   3.763   6.352 -0.3986  1.0701  0.8491
14155SOL    HW242644   3.038   3.834   6.438  0.2842  1.6435 -0.5366
14156SOL     OW42645   2.064   7.645   4.681 -0.0490 -0.4373 -0.1653
14156SOL    HW142646   2.066   7.627   4.780  0.0684 -0.0091 -0.0892
14156SOL    HW242647   1.969   7.643   4.649 -0.2335  0.8802  0.2318
14157SOL     OW42648   5.231   6.257   1.589  0.0553 -0.3355 -0.0855
14157SOL    HW142649   5.273   6.199   1.659  0.9279  0.2927 -0.0670
14157SOL    HW242650   5.302   6.292   1.528 -0.6151 -0.3136 -0.8735
14158SOL     OW42651   3.268   7.741   3.480  0.2323  0.5102  0.3822
14158SOL    HW142652   3.307   7.650   3.495  0.8236  0.6835 -0.0431
14158SOL    HW242653   3.176   7.746   3.520  1.2802  0.6227  2.9917
14159SOL     OW42654   0.340   0.470   3.311 -0.4414  0.3905 -0.1078
14159SOL    HW142655   0.409   0.485   3.382 -1.0446  2.4304  0.1110
14159SOL    HW242656   0.355   0.534   3.236 -0.1803 -1.3298 -1.6035
14160SOL     OW42657   4.496   2.964   7.234 -0.7385 -0.3510  0.4994
14160SOL    HW142658   4.513   2.866   7.224 -0.1119 -0.1889 -0.0909
14160SOL    HW242659   4.420   2.979   7.297  1.5228 -1.1077  3.6166
14161SOL     OW42660   2.482   7.543   8.779  0.1687  0.4209  0.2117
14161SOL    HW142661   2.518   7.456   8.745  1.1721  0.0811  1.9975
14161SOL    HW242662   2.557   7.609   8.789 -0.6147  1.6171 -1.3423
14162SOL     OW42663   6.810   7.178   2.148 -0.1878  0.5797  0.5734
14162SOL    HW142664   6.713   7.197   2.163 -0.4630  0.0336 -0.3656
14162SOL    HW242665   6.864   7.260   2.166 -0.8243  0.8800  1.1369
14163SOL     OW42666   7.488   4.698   2.042 -0.1274 -0.6922 -0.4151
14163SOL    HW142667   7.411   4.662   2.094  0.2020  1.1337  1.4465
14163SOL    HW242668   7.460   4.781   1.994  0.3065 -0.8487 -0.9477
14164SOL     OW42669   6.558   1.503   4.765  0.3247 -0.5899 -0.6251
14164SOL    HW142670   6.552   1.540   4.858 -0.2657  1.4113 -1.4289
14164SOL    HW242671   6.477   1.447   4.746  1.1415 -2.2749  0.5299
14165SOL     OW42672   0.467   3.757   5.135 -0.4503 -0.4990 -0.2012
14165SOL    HW142673   0.385   3.760   5.192  0.5203 -1.2266  1.3005
14165SOL    HW242674   0.530   3.688   5.171  2.0262  1.8993  0.4123
14166SOL     OW42675   7.040   5.238   0.127  0.0160 -0.4920  0.2034
14166SOL    HW142676   6.986   5.186   0.193  0.1574 -0.2534  0.5048
14166SOL    HW242677   7.115   5.285   0.173  0.9321 -1.3994 -0.3059
14167SOL     OW42678   0.272   4.881   4.048 -0.0346 -0.1705  0.2151
14167SOL    HW142679   0.223   4.924   3.972  0.3373  2.0718  1.1759
14167SOL    HW242680   0.368   4.870   4.023 -0.2866 -1.3201 -0.3470
14168SOL     OW42681   6.501   6.018   7.486 -0.0112 -0.4516 -0.5341
14168SOL    HW142682   6.409   6.046   7.513 -0.6274 -1.0661 -1.8950
14168SOL    HW242683   6.561   6.098   7.480 -0.4927 -0.0292  0.1813
14169SOL     OW42684   6.025   4.745   0.248  0.5068 -0.1152 -0.2267
14169SOL    HW142685   6.045   4.745   0.346  0.0481  0.4266 -0.1280
14169SOL    HW242686   5.996   4.836   0.219 -1.2601 -0.7145 -0.4590
14170SOL     OW42687   6.501   5.487   1.805 -0.0827  0.0656  0.0798
14170SOL    HW142688   6.475   5.563   1.745  0.3845  0.8281  0.8305
14170SOL    HW242689   6.494   5.402   1.754  1.0918  0.7670 -1.3534
14171SOL     OW42690   2.598   2.039   3.610 -0.5146  0.7593 -0.4620
14171SOL    HW142691   2.605   1.940   3.600  1.7913  0.9912 -1.9388
14171SOL    HW242692   2.602   2.063   3.707 -2.8237 -0.6109  0.0577
14172SOL     OW42693   1.234   0.272   5.799 -0.3037 -0.0632  0.6636
14172SOL    HW142694   1.242   0.350   5.860 -2.4280 -0.2081  1.2287
14172SOL    HW242695   1.319   0.220   5.798  0.7029  1.5216  1.2733
14173SOL     OW42696   5.294   8.373   5.147 -0.0673  0.2087 -0.4308
14173SOL    HW142697   5.325   8.336   5.234 -0.0313  2.0111  0.3426
14173SOL    HW242698   5.370   8.377   5.083  0.2027  0.1343 -0.1144
14174SOL     OW42699   7.426   2.149   7.160  0.4301  0.7834  0.1718
14174SOL    HW142700   7.506   2.167   7.217  0.0770  0.6694  0.7158
14174SOL    HW242701   7.424   2.213   7.084  0.8182  1.0521  0.3858
14175SOL     OW42702   8.700   7.435   1.386  0.1223  1.0558 -0.1735
14175SOL    HW142703   8.760   7.483   1.322 -0.9419  1.7504 -0.6726
14175SOL    HW242704   8.621   7.492   1.407  0.0713  0.5263  1.1788
14176SOL     OW42705   4.662   8.073   3.520 -0.2215  0.4035  0.0261
14176SOL    HW142706   4.741   8.134   3.522 -1.0035  1.4309  1.2588
14176SOL    HW242707   4.665   8.013   3.601 -1.3584  1.3606  0.8087
14177SOL     OW42708   5.632   3.944   7.635 -0.2793  0.6174  0.3054
14177SOL    HW142709   5.645   3.937   7.536 -0.4155  0.1733  0.3134
14177SOL    HW242710   5.648   3.854   7.676  0.7737  1.0117  0.8107
14178SOL     OW42711   7.365   1.573   2.924 -0.7494  0.2614 -0.5909
14178SOL    HW142712   7.391   1.615   2.837 -2.4731  0.8986 -0.8409
14178SOL    HW242713   7.277   1.526   2.913  0.1998 -1.8429  0.1855
14179SOL     OW42714   0.153   0.798   2.285  0.6335  0.2281  0.1894
14179SOL    HW142715   0.135   0.706   2.321 -0.4377  1.0284  1.8229
14179SOL    HW242716   0.095   0.864   2.332  0.1725  1.5741 -2.0990
14180SOL     OW42717   7.062   6.307   4.257  0.0732  0.4138  0.3008
14180SOL    HW142718   7.045   6.220   4.302  0.4471 -0.0717 -0.4721
14180SOL    HW242719   7.133   6.357   4.306  0.0627  0.1522  0.5796
14181SOL     OW42720   1.341   1.628   1.765 -0.4020 -0.3130 -0.7693
14181SOL    HW142721   1.285   1.605   1.686  0.7945 -2.0519 -1.1775
14181SOL    HW242722   1.386   1.546   1.799  1.8466  0.9607 -0.4338
14182SOL     OW42723   1.857   5.434   7.624 -0.0851  0.2619 -0.5176
14182SOL    HW142724   1.758   5.451   7.634  0.0585  0.8144  0.0584
14182SOL    HW242725   1.874   5.389   7.536 -0.7504  1.0970 -1.1015
14183SOL     OW42726   2.023   0.506   5.742  0.5049  0.3390 -0.1532
14183SOL    HW142727   1.991   0.528   5.650  0.0373 -0.0263 -0.0824
14183SOL    HW242728   1.969   0.431   5.779  0.4117  0.7518  0.5771
14184SOL     OW42729   5.080   1.907   5.364 -0.0252 -0.4147  0.1914
14184SOL    HW142730   5.160   1.878   5.311 -1.2121 -2.3679 -0.6064
14184SOL    HW242731   5.013   1.949   5.303 -0.6933 -1.1556  0.3981
14185SOL     OW42732   1.534   7.577   2.010  0.7056 -0.4055 -0.3434
14185SOL    HW142733   1.468   7.563   1.935  0.9880  0.1945 -0.7094
14185SOL    HW242734   1.583   7.492   2.027 -1.4027 -1.4191  1.1568
14186SOL     OW42735   3.938   3.678   7.705  0.9641 -0.0451  0.7662
14186SOL    HW142736   3.902   3.593   7.667  1.3283  0.3213 -0.4532
14186SOL    HW242737   3.945   3.746   7.632  1.7544  0.6678  1.4905
14187SOL     OW42738   0.928   0.946   4.767 -0.1852  0.2204  0.0694
14187SOL    HW142739   0.951   0.899   4.682 -2.1741 -2.7854  1.0435
14187SOL    HW242740   0.983   0.910   4.842 -1.5137 -0.4460  0.7776
14188SOL     OW42741   3.845   8.572   4.387  0.1646 -0.4220 -0.2641
14188SOL    HW142742   3.750   8.560   4.414 -0.1544 -0.5453 -1.3812
14188SOL    HW242743   3.873   8.497   4.327  0.5079  0.3602 -1.1132
14189SOL     OW42744   1.085   5.597   3.327  0.2044  0.2698 -0.4792
14189SOL    HW142745   1.081   5.685   3.374  0.6473  0.3646 -0.6118
14189SOL    HW242746   1.167   5.547   3.356 -0.8629 -0.8075  0.8230
14190SOL     OW42747   4.465   5.029   7.970  0.5770  0.1893  0.1528
14190SOL    HW142748   4.412   5.113   7.983  0.2766 -0.1755  1.4394
14190SOL    HW242749   4.528   5.041   7.893  2.0285  2.3420  1.5657
14191SOL     OW42750   7.940   5.850   8.386  0.0024  0.1147  0.2900
14191SOL    HW142751   7.948   5.939   8.342 -0.9733  0.2265  0.3114
14191SOL    HW242752   7.881   5.857   8.466  2.9671  0.2487  2.6515
14192SOL     OW42753   3.405   7.297   5.752  0.1592  0.4343 -0.1685
14192SOL    HW142754   3.349   7.275   5.672 -0.4222  2.4746 -0.3854
14192SOL    HW242755   3.393   7.394   5.776  0.5081 -0.0454  2.2508
14193SOL     OW42756   3.392   2.935   1.853 -0.1168 -0.0952 -0.2160
14193SOL    HW142757   3.358   3.017   1.808  1.0179 -0.0207 -0.9959
14193SOL    HW242758   3.471   2.900   1.802 -0.6544 -1.7450  0.0362
14194SOL     OW42759   7.942   4.055   0.379  0.1474 -0.0034 -0.7440
14194SOL    HW142760   7.885   3.975   0.397  0.0938  0.4535  1.3968
14194SOL    HW242761   8.038   4.029   0.379  0.1764  0.0403  0.7965
14195SOL     OW42762   2.618   4.613   1.415  0.4292 -0.0182 -0.1648
14195SOL    HW142763   2.606   4.572   1.506  1.4814 -2.1059 -0.8942
14195SOL    HW242764   2.711   4.595   1.383  0.0498  0.6173 -1.6788
14196SOL     OW42765   0.588   8.729   1.173  0.4399  0.3073 -0.2665
14196SOL    HW142766   0.514   8.796   1.180  0.0473  0.0311 -1.5513
14196SOL    HW242767   0.618   8.722   1.078  1.3431 -0.4214  0.0579
14197SOL     OW42768   0.863   3.474   3.725  0.0387 -0.8531 -0.5376
14197SOL    HW142769   0.875   3.405   3.654  0.3204 -2.0861  0.6657
14197SOL    HW242770   0.798   3.440   3.793 -1.9621  1.2112 -1.2882
14198SOL     OW42771   3.866   4.683   6.599  0.0318  0.0798 -0.1935
14198SOL    HW142772   3.922   4.605   6.570  1.0790  0.4751  0.7090
14198SOL    HW242773   3.831   4.666   6.692 -1.1070 -0.0202 -0.6211
14199SOL     OW42774   5.677   3.651   6.371 -0.1099 -0.0816 -0.2960
14199SOL    HW142775   5.589   3.613   6.397  0.7829 -0.5723  2.3503
14199SOL    HW242776   5.733   3.580   6.328  0.4181 -1.0307  1.7957
14200SOL     OW42777   7.568   3.428   4.929  0.2168  0.5495 -0.8575
14200SOL    HW142778   7.572   3.445   5.027  0.9338  0.3480 -0.8428
14200SOL    HW242779   7.480   3.386   4.905  1.2855 -2.6558  0.2501
14201SOL     OW42780   3.523   3.616   3.262 -0.3250 -0.1626 -0.1557
14201SOL    HW142781   3.431   3.625   3.224 -0.2865 -1.3902 -0.5890
14201SOL    HW242782   3.538   3.522   3.291  0.5887  0.1622  0.4720
14202SOL     OW42783   5.785   0.611   3.252 -0.3039 -0.0228  0.0712
14202SOL    HW142784   5.738   0.556   3.321 -0.3480  1.6233  1.3996
14202SOL    HW242785   5.737   0.603   3.164 -2.0482  0.2219  0.9660
14203SOL     OW42786   3.371   0.684   2.517 -0.4203  0.5957 -0.5724
14203SOL    HW142787   3.340   0.598   2.557  0.3654  0.2370 -0.7236
14203SOL    HW242788   3.453   0.668   2.463  0.6667  1.7090  0.6842
14204SOL     OW42789   2.798   8.658   3.761  0.2469  0.8358  0.3014
14204SOL    HW142790   2.863   8.734   3.767  1.6214 -0.2516 -0.0163
14204SOL    HW242791   2.836   8.587   3.701 -1.7275  0.5910 -0.7378
14205SOL     OW42792   7.754   4.178   7.109 -0.3562  0.1368 -0.7096
14205SOL    HW142793   7.723   4.239   7.035  2.1525  1.4343 -0.7952
14205SOL    HW242794   7.724   4.215   7.197 -1.9531 -0.5312 -0.9416
14206SOL     OW42795   4.071   4.685   5.181  0.2806 -0.3474 -0.1623
14206SOL    HW142796   4.108   4.778   5.186  1.1054 -0.6830  0.2614
14206SOL    HW242797   4.046   4.664   5.086  0.2298  0.2501 -0.2845
14207SOL     OW42798   2.871   5.491   2.677 -0.2812  0.6653 -0.5819
14207SOL    HW142799   2.944   5.529   2.621  1.9551  0.3833  1.9648
14207SOL    HW242800   2.863   5.542   2.762  0.1700 -2.0857  1.2439
14208SOL     OW42801   6.457   0.048   3.218  0.6769  0.4707 -0.8372
14208SOL    HW142802   6.463  -0.023   3.148 -1.0256  0.8605 -1.4409
14208SOL    HW242803   6.536   0.108   3.212  1.5793 -0.7058 -1.0586
14209SOL     OW42804   7.701   5.746   4.781  0.2782  0.8363 -0.2212
14209SOL    HW142805   7.605   5.752   4.807 -0.9669 -2.3411 -3.3317
14209SOL    HW242806   7.740   5.838   4.779 -3.0884  2.4246 -0.2474
14210SOL     OW42807   3.047   0.599   0.896 -0.2156  0.1520  0.1353
14210SOL    HW142808   3.068   0.593   0.799 -0.5325 -2.8822  0.1399
14210SOL    HW242809   3.131   0.613   0.948  0.1314  0.4414 -0.4942
14211SOL     OW42810   4.437   0.122   4.686 -0.1252  0.3210  0.2280
14211SOL    HW142811   4.487   0.157   4.765 -1.8535  1.4794  0.8718
14211SOL    HW242812   4.381   0.044   4.715 -1.1015  1.0271  0.2769
14212SOL     OW42813   4.257   7.363   2.868  0.4632 -0.3732  0.4466
14212SOL    HW142814   4.157   7.352   2.865  0.6094 -1.6991 -0.2678
14212SOL    HW242815   4.300   7.297   2.806  1.7015  1.6586 -0.9877
14213SOL     OW42816   5.512   3.925   1.912 -0.7260 -0.3666  0.1703
14213SOL    HW142817   5.524   4.021   1.938 -0.6371  0.3419 -2.2209
14213SOL    HW242818   5.595   3.874   1.934 -0.2278  0.4242  0.1662
14214SOL     OW42819   6.114   0.723   7.579  0.8207 -0.0108 -0.0914
14214SOL    HW142820   6.055   0.803   7.587  1.3100  0.3401  0.0947
14214SOL    HW242821   6.077   0.660   7.511 -1.0706 -0.9466  1.6912
14215SOL     OW42822   7.096   0.091   1.130  0.5468  0.0664 -0.3036
14215SOL    HW142823   7.170   0.151   1.099 -0.2194  1.3471  0.2758
14215SOL    HW242824   7.135   0.010   1.173  1.6816  1.5883  1.7147
14216SOL     OW42825   2.732   8.186   6.896  0.2331  0.0414 -0.5526
14216SOL    HW142826   2.660   8.164   6.961  0.0249  0.8334 -0.5054
14216SOL    HW242827   2.797   8.110   6.891 -0.2513 -0.4065 -0.1166
14217SOL     OW42828   0.023   2.934   7.116  0.6738 -0.2542  0.3598
14217SOL    HW142829   0.118   2.966   7.109  0.2114  0.7334 -2.8100
14217SOL    HW242830  -0.025   2.988   7.186  2.4276 -0.9096  2.1623
14218SOL     OW42831   8.149   5.576   0.877 -0.3601  0.1633  0.1630
14218SOL    HW142832   8.171   5.670   0.904  1.2556 -0.1022 -0.1075
14218SOL    HW242833   8.213   5.513   0.922 -1.7771 -0.8714  0.7838
14219SOL     OW42834   8.242   6.410   2.664  0.0588  0.0034 -0.5267
14219SOL    HW142835   8.218   6.331   2.608 -2.8212  0.1999  0.3006
14219SOL    HW242836   8.290   6.378   2.746 -0.2895 -0.8059 -0.6224
14220SOL     OW42837   4.246   7.113   4.026 -0.0672 -0.5531 -0.3174
14220SOL    HW142838   4.189   7.136   3.947 -1.4624  0.7045  1.0016
14220SOL    HW242839   4.331   7.071   3.994 -0.0810  0.9414 -2.5582
14221SOL     OW42840   1.421   6.751   5.146 -0.2469 -0.1394  0.1224
14221SOL    HW142841   1.488   6.763   5.073 -0.7383  0.1952 -0.2738
14221SOL    HW242842   1.417   6.655   5.172 -1.1361 -0.5040 -1.3020
14222SOL     OW42843   1.554   3.943   5.929  0.4267 -0.3607  0.5128
14222SOL    HW142844   1.578   3.846   5.925  0.1409 -0.4701  1.2889
14222SOL    HW242845   1.637   3.998   5.944  0.7363 -0.3864 -0.9920
14223SOL     OW42846   1.262   2.807   4.620  0.1122  0.1946  0.7643
14223SOL    HW142847   1.216   2.895   4.610 -1.4402 -0.7081 -0.5290
14223SOL    HW242848   1.232   2.746   4.547  2.8269 -0.7197  0.2929
14224SOL     OW42849   8.522   5.341   3.001  0.7800 -0.1028 -0.1572
14224SOL    HW142850   8.474   5.260   3.035  0.9240 -0.0307  0.2229
14224SOL    HW242851   8.488   5.364   2.910  2.5206 -2.0991 -1.4015
14225SOL     OW42852   7.631   1.141   7.953 -0.2059  0.0802 -0.3626
14225SOL    HW142853   7.654   1.083   8.032 -0.5247 -1.1371 -1.1371
14225SOL    HW242854   7.561   1.207   7.981  0.1921  0.1410  0.5535
14226SOL     OW42855   0.094   4.907   4.713 -0.2474 -0.1329  0.7945
14226SOL    HW142856   0.075   4.811   4.732 -1.1634 -0.5031 -1.5618
14226SOL    HW242857   0.175   4.914   4.654  1.3955  0.7867  3.0170
14227SOL     OW42858   4.749   8.240   0.622 -0.2065  0.7356  0.0431
14227SOL    HW142859   4.700   8.251   0.536  0.2389 -0.8705 -0.4437
14227SOL    HW242860   4.845   8.266   0.610  0.3546 -1.3835 -0.5577
14228SOL     OW42861   7.774   4.715   3.546 -0.6104 -0.0288 -0.6917
14228SOL    HW142862   7.735   4.636   3.498  1.1627 -0.6635 -1.1660
14228SOL    HW242863   7.873   4.705   3.552 -0.5498  1.2124  1.0410
14229SOL     OW42864   4.800   0.499   0.852  0.0885 -0.2975  0.2631
14229SOL    HW142865   4.850   0.413   0.856 -1.2244 -1.0243  2.5102
14229SOL    HW242866   4.703   0.481   0.838 -0.3357  0.7339  1.6427
14230SOL     OW42867   8.538   8.165   6.009  0.2410 -0.4515 -0.3654
14230SOL    HW142868   8.510   8.211   5.924  0.7028  1.5908  0.5289
14230SOL    HW242869   8.562   8.234   6.078  1.2240 -2.0815  0.9888
14231SOL     OW42870   5.896   1.068   4.900  0.1491 -0.2115  0.5339
14231SOL    HW142871   5.939   1.110   4.820 -1.8213  0.2355 -0.3344
14231SOL    HW242872   5.916   0.970   4.900  1.4900  0.0391  0.4068
14232SOL     OW42873   5.791   3.146   8.471  0.1619  0.0674  0.2512
14232SOL    HW142874   5.828   3.176   8.559  0.9091 -0.4821  0.1299
14232SOL    HW242875   5.849   3.179   8.397  0.6972 -1.1988  0.0860
14233SOL     OW42876   0.851   7.764   8.182  0.2147 -0.0716 -0.4280
14233SOL    HW142877   0.880   7.841   8.239 -1.8829  0.6812 -0.3098
14233SOL    HW242878   0.751   7.762   8.175  0.2240 -2.4020 -0.9840
14234SOL     OW42879   7.245   0.694   2.758 -0.3585  0.3135  0.5715
14234SOL    HW142880   7.261   0.696   2.659  2.2372  1.5574  0.9394
14234SOL    HW242881   7.190   0.773   2.784 -0.9183  0.0663  0.1580
14235SOL     OW42882   3.386   3.106   5.131 -0.4650 -0.7061  0.0703
14235SOL    HW142883   3.424   3.130   5.220 -0.9977 -1.4653  0.5140
14235SOL    HW242884   3.450   3.134   5.059  1.1425 -2.2263  0.8120
14236SOL     OW42885   3.161   3.338   5.397 -0.4408 -0.5526 -0.4068
14236SOL    HW142886   3.170   3.430   5.358  0.3403 -1.4771 -2.5131
14236SOL    HW242887   3.078   3.335   5.453 -0.3556  1.4835 -0.0672
14237SOL     OW42888   4.394   2.256   2.207 -1.2790  0.3457 -0.4355
14237SOL    HW142889   4.418   2.159   2.195 -0.5226  0.4362  0.3005
14237SOL    HW242890   4.301   2.263   2.243 -0.9319 -0.1592  0.6022
14238SOL     OW42891   7.281   2.275   3.624 -0.1966  0.6390  0.0712
14238SOL    HW142892   7.348   2.302   3.694 -0.1821  0.9534 -0.0611
14238SOL    HW242893   7.314   2.195   3.575 -1.1640 -0.9143  1.8405
14239SOL     OW42894   0.432   0.951   3.917  0.6940  0.2011  0.2748
14239SOL    HW142895   0.338   0.919   3.915  0.4064  1.0280 -1.3654
14239SOL    HW242896   0.434   1.050   3.931  1.2872  0.2338  0.0297
14240SOL     OW42897   6.395   7.868   7.649 -0.8206  0.2790  0.0377
14240SOL    HW142898   6.329   7.870   7.574  2.3349  2.3164 -2.9982
14240SOL    HW242899   6.460   7.793   7.635 -0.2835  0.5789  0.8204
14241SOL     OW42900   7.652   8.794   1.726  0.5967 -0.4822  0.2784
14241SOL    HW142901   7.605   8.863   1.671  0.9516 -0.6323 -0.2190
14241SOL    HW242902   7.749   8.818   1.733  0.2559  0.5611  2.4205
14242SOL     OW42903   4.955   2.878   4.376  0.0985 -0.7148 -0.1250
14242SOL    HW142904   4.945   2.831   4.464  0.6544 -1.0415 -0.2270
14242SOL    HW242905   4.874   2.861   4.320 -0.5558  0.0520  0.5750
14243SOL     OW42906   8.111   1.708   0.459 -0.1895 -1.0866 -0.2941
14243SOL    HW142907   8.189   1.696   0.520 -0.2834  0.0335  0.0783
14243SOL    HW242908   8.026   1.707   0.513 -0.2627  0.0704 -0.3625
14244SOL     OW42909   2.434   0.222   2.076 -0.0192  0.1355 -0.8644
14244SOL    HW142910   2.475   0.131   2.069  2.1713  0.9917 -0.1915
14244SOL    HW242911   2.346   0.223   2.030  0.1142 -2.1979 -1.2684
14245SOL     OW42912   3.328   7.865   2.165 -0.4179 -0.2450  0.5264
14245SOL    HW142913   3.384   7.809   2.103 -0.9734 -0.3310  0.0830
14245SOL    HW242914   3.380   7.887   2.247  1.4111  2.3448 -1.1989
14246SOL     OW42915   4.092   5.373   6.246  0.2149  0.2527  0.5410
14246SOL    HW142916   4.096   5.467   6.280 -0.4290  0.1280  0.9681
14246SOL    HW242917   4.058   5.313   6.318 -0.9386 -0.0636 -0.2461
14247SOL     OW42918   6.531   3.914   8.705 -0.0688 -0.1775  0.2596
14247SOL    HW142919   6.524   3.869   8.616  0.6435  1.6212 -0.7685
14247SOL    HW242920   6.447   3.901   8.756 -0.2962 -1.6771 -0.4527
14248SOL     OW42921   5.051   3.232   5.080  0.3460 -0.0500  0.2370
14248SOL    HW142922   5.053   3.306   5.013 -1.1031  0.6742  0.9291
14248SOL    HW242923   5.139   3.226   5.126  0.4158  1.4410  0.3596
14249SOL     OW42924   0.750   0.425   8.301  0.5393 -0.0318  0.6155
14249SOL    HW142925   0.696   0.394   8.223  1.1554  0.1062  0.1243
14249SOL    HW242926   0.745   0.357   8.374 -1.1942  0.4841  1.0350
14250SOL     OW42927   3.311   1.340   0.619 -0.1583  0.4049 -0.2708
14250SOL    HW142928   3.303   1.240   0.616 -1.1709  0.4522  0.4704
14250SOL    HW242929   3.403   1.366   0.590  0.7277 -0.8568  1.2019
14251SOL     OW42930   2.534   8.627   8.551 -0.8930  0.1440  0.5233
14251SOL    HW142931   2.550   8.704   8.613  1.1738  0.2587 -0.0902
14251SOL    HW242932   2.471   8.656   8.478 -0.6601  1.0593  0.6668
14252SOL     OW42933   2.830   4.621   4.571 -0.3280  0.4919  0.0678
14252SOL    HW142934   2.763   4.549   4.550  0.5469  0.1254 -1.6339
14252SOL    HW242935   2.782   4.705   4.597 -1.3982 -0.2216  0.4515
14253SOL     OW42936   2.761   2.057   5.186 -0.8874  0.4053  0.1214
14253SOL    HW142937   2.771   2.021   5.279  0.2805  1.8553  0.6040
14253SOL    HW242938   2.719   2.148   5.190 -0.5118  0.6308 -0.7190
14254SOL     OW42939   2.673   1.242   3.002 -0.1172 -0.2665  0.2207
14254SOL    HW142940   2.689   1.194   2.915  0.8858  1.0746 -0.3632
14254SOL    HW242941   2.623   1.327   2.985  0.8009  0.4116  0.8555
14255SOL     OW42942   4.931   4.450   4.991 -0.2144 -0.1366  0.2041
14255SOL    HW142943   4.944   4.433   4.893 -0.6159  0.3670  0.0552
14255SOL    HW242944   4.835   4.472   5.008 -0.1154 -0.0651  0.6926
14256SOL     OW42945   4.050   8.112   0.529 -0.3751  0.5346  0.3908
14256SOL    HW142946   4.055   8.117   0.629  0.2813 -2.7723  0.6412
14256SOL    HW242947   4.142   8.097   0.492 -0.4704  2.6947 -0.8591
14257SOL     OW42948   7.510   8.408   8.444  0.2147  0.3082  0.2843
14257SOL    HW142949   7.413   8.397   8.465  0.5807  0.5337  2.2869
14257SOL    HW242950   7.541   8.329   8.390 -0.9890  0.0446 -0.0485
14258SOL     OW42951   4.907   7.297   1.757  0.1483  0.0428  0.0131
14258SOL    HW142952   4.914   7.273   1.854 -0.1437  2.2812  0.6624
14258SOL    HW242953   4.991   7.272   1.710  0.4730 -0.6617  0.9404
14259SOL     OW42954   1.349   4.270   6.518 -0.4497 -0.0450  0.1449
14259SOL    HW142955   1.296   4.201   6.468 -1.8066  1.7004 -0.9195
14259SOL    HW242956   1.404   4.224   6.588 -1.2646 -2.2063 -0.5281
14260SOL     OW42957   3.980   3.530   5.636  0.2759  0.2012 -0.1068
14260SOL    HW142958   4.006   3.477   5.717  4.5568 -0.6441 -1.7691
14260SOL    HW242959   3.983   3.627   5.658 -0.1416 -0.0305  1.0856
14261SOL     OW42960   5.666   4.261   3.558 -0.3907  0.4981  0.4511
14261SOL    HW142961   5.702   4.345   3.518 -0.9911  1.2554  1.4770
14261SOL    HW242962   5.717   4.238   3.641 -2.0673  1.4805  1.8131
14262SOL     OW42963   8.541   4.170   1.666 -0.0814  0.4664  0.2680
14262SOL    HW142964   8.530   4.234   1.741  1.5753 -0.1213  1.0719
14262SOL    HW242965   8.456   4.119   1.652 -0.6937  1.2217  1.1306
14263SOL     OW42966   5.928   1.338   7.687  0.1185 -0.4269 -0.0840
14263SOL    HW142967   5.864   1.410   7.716 -0.3957 -0.3659 -1.3386
14263SOL    HW242968   5.891   1.249   7.712 -0.2304 -0.3646 -0.3726
14264SOL     OW42969   7.654   2.239   0.194 -0.4566  0.2053  0.8507
14264SOL    HW142970   7.559   2.230   0.164 -0.5240  1.4973  0.6161
14264SOL    HW242971   7.709   2.274   0.118  0.2202 -0.5415  0.9822
14265SOL     OW42972   8.425   3.602   6.399 -0.3664  0.4843 -0.2260
14265SOL    HW142973   8.449   3.625   6.493  0.9868  1.0900 -0.6996
14265SOL    HW242974   8.470   3.665   6.336 -2.1885  0.8472 -1.2479
14266SOL     OW42975   6.731   4.770   1.671  0.1206  0.4474  0.3824
14266SOL    HW142976   6.640   4.750   1.707 -0.0399  0.1101 -0.2085
14266SOL    HW242977   6.763   4.693   1.615 -0.1062  1.4145 -1.1386
14267SOL     OW42978   1.835   4.701   2.527 -0.5200  0.0816 -0.2490
14267SOL    HW142979   1.912   4.716   2.466 -1.5455 -0.9910 -1.8939
14267SOL    HW242980   1.771   4.636   2.485 -1.5209 -0.3239  1.7680
14268SOL     OW42981   6.438   3.843   6.483 -0.7757 -0.2195 -0.0016
14268SOL    HW142982   6.379   3.867   6.560 -1.2257  0.3694 -0.5149
14268SOL    HW242983   6.381   3.823   6.403 -0.2739  0.9148 -0.6581
14269SOL     OW42984   8.195   5.752   4.930 -0.2836  0.0791 -0.7672
14269SOL    HW142985   8.109   5.719   4.969 -1.0533  0.7553 -1.8196
14269SOL    HW242986   8.200   5.851   4.939  0.6553 -0.0080 -0.2284
14270SOL     OW42987   6.078   8.146   0.392 -0.1577  0.1422 -0.0648
14270SOL    HW142988   6.106   8.216   0.457 -1.1718  0.6473 -0.1496
14270SOL    HW242989   6.032   8.072   0.441  1.4192 -0.7686  0.0968
14271SOL     OW42990   7.967   6.429   7.825 -0.1236  0.6559  0.1076
14271SOL    HW142991   8.051   6.377   7.814 -0.1775  0.5602  0.1533
14271SOL    HW242992   7.973   6.485   7.908 -1.0885 -1.2251  1.5054
14272SOL     OW42993   5.062   8.694   5.486 -0.2776 -0.0857 -0.2476
14272SOL    HW142994   5.057   8.605   5.531 -0.9909  0.1766  0.2073
14272SOL    HW242995   4.973   8.718   5.449  0.0844  0.1207 -1.0134
14273SOL     OW42996   2.104   4.573   7.461  0.2094 -0.6792  0.1617
14273SOL    HW142997   2.099   4.476   7.436  1.3204 -0.3731 -1.3879
14273SOL    HW242998   2.200   4.602   7.463 -0.1544  0.7263 -0.9158
14274SOL     OW42999   4.319   7.614   4.416 -0.1404 -0.3898  0.6113
14274SOL    HW143000   4.413   7.645   4.408  0.0003 -0.5564  1.4603
14274SOL    HW243001   4.269   7.633   4.331  0.7171 -0.5321  0.0696
14275SOL     OW43002   0.594   7.461   6.595 -0.1716  0.3309 -0.2795
14275SOL    HW143003   0.515   7.427   6.646  0.0033  1.0303  0.4757
14275SOL    HW243004   0.605   7.408   6.511 -0.2904 -1.0307  0.5473
14276SOL     OW43005   6.838   8.465   0.284 -0.2081 -0.2991  0.2587
14276SOL    HW143006   6.818   8.544   0.341  0.2796  0.7118 -0.9337
14276SOL    HW243007   6.907   8.408   0.330 -1.7248 -0.9461  1.8710
14277SOL     OW43008   3.677   2.837   6.653 -0.0476 -0.0452 -0.0084
14277SOL    HW143009   3.601   2.824   6.716  0.6542 -0.9048  0.6985
14277SOL    HW243010   3.763   2.835   6.704  0.7292 -3.2976 -1.2358
14278SOL     OW43011   5.695   2.473   1.300  0.0490  0.4177  0.1075
14278SOL    HW143012   5.735   2.404   1.240 -0.1169 -1.1902  1.7511
14278SOL    HW243013   5.688   2.437   1.393 -1.2663  2.1944  0.7719
14279SOL     OW43014   1.633   3.508   6.227  0.5779 -0.0011 -0.1170
14279SOL    HW143015   1.551   3.451   6.236  0.2155 -0.0453 -2.8133
14279SOL    HW243016   1.608   3.597   6.189  1.6527  0.3930  0.0737
14280SOL     OW43017   6.706   7.760   1.771  0.6821  0.1376  0.1663
14280SOL    HW143018   6.616   7.795   1.749  0.0863 -1.5876 -0.2737
14280SOL    HW243019   6.702   7.707   1.855  0.9645 -1.1222 -0.5873
14281SOL     OW43020   0.405   4.838   0.909  0.0804 -0.0715  0.1446
14281SOL    HW143021   0.423   4.806   0.816  2.3711 -0.2052  0.5682
14281SOL    HW243022   0.307   4.847   0.923 -0.4542 -2.2463 -1.5613
14282SOL     OW43023   7.972   3.166   0.055  0.1113  0.0069 -0.0453
14282SOL    HW143024   8.017   3.115   0.128  0.1601  0.4389  0.2297
14282SOL    HW243025   7.933   3.250   0.092 -0.0310  0.1344 -0.4806
14283SOL     OW43026   7.923   8.633   1.427 -0.3282 -0.3778  0.2656
14283SOL    HW143027   7.825   8.632   1.412 -0.6560 -0.4698  2.1511
14283SOL    HW243028   7.969   8.581   1.355 -1.5042  0.8335 -1.4296
14284SOL     OW43029   7.271   5.915   5.652  0.4458 -0.3999  0.1389
14284SOL    HW143030   7.351   5.974   5.644 -0.0623  0.1394 -1.4632
14284SOL    HW243031   7.251   5.898   5.748  0.7049  1.9199  0.6660
14285SOL     OW43032   3.858   5.858   4.188  0.2387  0.3205 -0.2866
14285SOL    HW143033   3.760   5.852   4.172 -0.0981 -0.9955  1.7937
14285SOL    HW243034   3.904   5.783   4.140  0.2276  0.8389 -1.1256
14286SOL     OW43035   3.005   8.546   3.355 -0.0213 -0.5796  0.2446
14286SOL    HW143036   3.071   8.621   3.352 -0.1786 -0.4582 -1.6077
14286SOL    HW243037   3.032   8.477   3.287 -0.5006 -1.6674  1.1356
14287SOL     OW43038   8.761   8.840   7.703 -0.0482  0.1054  0.0812
14287SOL    HW143039   8.751   8.756   7.757  2.0337 -1.3673 -1.6692
14287SOL    HW243040   8.711   8.831   7.617  0.8532  0.3202 -0.4730
14288SOL     OW43041   7.907   3.787   0.446 -0.1074  0.0434  0.2251
14288SOL    HW143042   7.993   3.778   0.497  0.4727 -0.3465 -0.7771
14288SOL    HW243043   7.862   3.698   0.442 -0.6040  0.2635  0.8118
14289SOL     OW43044   6.802   2.771   7.502 -0.5556  0.2077  0.6778
14289SOL    HW143045   6.867   2.772   7.578  0.2825 -0.2940 -0.0171
14289SOL    HW243046   6.720   2.823   7.528 -0.3222 -0.0232  1.9416
14290SOL     OW43047   5.406   2.282   6.647 -0.0922 -0.6198  0.2160
14290SOL    HW143048   5.391   2.379   6.629 -0.5016 -0.5379  0.9600
14290SOL    HW243049   5.320   2.232   6.636 -0.0365 -0.7850  0.5185
14291SOL     OW43050   8.254   5.987   2.838 -0.2171 -0.4405  0.1895
14291SOL    HW143051   8.314   5.964   2.762  1.5129 -0.6923  1.5633
14291SOL    HW243052   8.160   5.961   2.816  0.3550 -1.1773 -1.5315
14292SOL     OW43053   7.503   5.608   7.509  0.2244 -0.6609 -0.8387
14292SOL    HW143054   7.534   5.640   7.599  1.4837 -1.7343 -0.8650
14292SOL    HW243055   7.426   5.664   7.479 -0.6653 -0.6880  1.2003
14293SOL     OW43056   8.535   1.348   7.618  0.1021 -0.0475 -0.1206
14293SOL    HW143057   8.442   1.378   7.593  0.7771  1.4534 -0.9760
14293SOL    HW243058   8.531   1.294   7.702 -1.4114  1.1124  0.6067
14294SOL     OW43059   5.034   5.292   8.507 -0.3514  0.3315  0.0718
14294SOL    HW143060   4.984   5.374   8.479 -1.4614 -0.1301  0.6447
14294SOL    HW243061   5.131   5.314   8.519 -0.5704  1.4616 -0.1656
14295SOL     OW43062   1.879   0.729   5.873 -0.0087 -0.6618  0.6867
14295SOL    HW143063   1.880   0.643   5.925 -0.2347 -0.4047  1.1230
14295SOL    HW243064   1.798   0.782   5.899  0.0639 -0.3729  0.3238
14296SOL     OW43065   3.083   1.066   4.991  0.0489  0.3370 -0.0222
14296SOL    HW143066   3.103   1.023   4.903 -1.1123  0.0505 -0.1639
14296SOL    HW243067   3.043   1.156   4.976 -1.4154 -0.2525  0.1419
14297SOL     OW43068   3.177   0.930   4.773 -0.6163  0.3298  0.2504
14297SOL    HW143069   3.239   0.855   4.751 -1.3148 -0.2745  0.3203
14297SOL    HW243070   3.229   1.015   4.780  0.1265 -0.0810 -0.1930
14298SOL     OW43071   7.100   7.997   0.149 -0.3705 -0.6365 -0.3526
14298SOL    HW143072   7.085   8.012   0.247 -0.7572 -0.8034 -0.3828
14298SOL    HW243073   7.054   8.069   0.097 -0.8241 -0.9882 -0.4388
14299SOL     OW43074   0.854   8.393   5.468 -0.6642 -0.0130 -0.1551
14299SOL    HW143075   0.777   8.330   5.466 -0.3109 -0.4308 -1.1369
14299SOL    HW243076   0.930   8.351   5.517 -1.4246  0.8669  1.8835
14300SOL     OW43077   2.752   3.700   6.350 -0.2462  0.5676 -0.2754
14300SOL    HW143078   2.737   3.601   6.350  1.0388  0.3514  0.3558
14300SOL    HW243079   2.698   3.741   6.424 -0.9305  0.3819 -0.6566
14301SOL     OW43080   7.466   5.969   7.298  0.5472 -0.2189  0.0178
14301SOL    HW143081   7.415   6.042   7.252  0.7006  0.1739  0.4639
14301SOL    HW243082   7.406   5.892   7.315  0.2260  0.0463  0.0911
14302SOL     OW43083   3.411   0.092   4.545  0.0999 -0.0024 -0.2178
14302SOL    HW143084   3.485   0.028   4.522  0.5455  0.1761  0.6461
14302SOL    HW243085   3.409   0.166   4.478 -0.7575 -1.1586 -1.5335
14303SOL     OW43086   0.245   8.209   4.592  0.7265 -0.6433  0.0450
14303SOL    HW143087   0.282   8.298   4.564  1.3341  0.2963  3.3449
14303SOL    HW243088   0.156   8.194   4.549  1.2560  0.8728 -1.6803
14304SOL     OW43089   7.819   1.518   3.858 -0.0336  0.1621 -0.1108
14304SOL    HW143090   7.741   1.535   3.918  0.6111  1.2616  0.4509
14304SOL    HW243091   7.813   1.576   3.777  0.8235  1.1920  0.5375
14305SOL     OW43092   5.476   8.638   5.475  0.4423  0.4836 -0.0636
14305SOL    HW143093   5.419   8.688   5.540  0.9799 -0.6425  1.3396
14305SOL    HW243094   5.470   8.681   5.385  1.6188  3.6510  1.2260
14306SOL     OW43095   7.414   5.382   5.895  0.5947  0.3957 -0.0163
14306SOL    HW143096   7.359   5.323   5.837  0.9734  1.8223 -1.9323
14306SOL    HW243097   7.507   5.344   5.901  0.1383 -0.6250  1.0760
14307SOL     OW43098   6.809   0.234   0.504  0.0344 -0.2400  0.2571
14307SOL    HW143099   6.717   0.266   0.524 -0.7299 -0.4891 -2.4383
14307SOL    HW243100   6.836   0.166   0.572 -2.1545 -0.8496  0.6017
14308SOL     OW43101   3.981   4.348   6.842 -0.0637  0.4817 -0.5445
14308SOL    HW143102   4.064   4.396   6.812 -1.2180  2.7064 -0.3773
14308SOL    HW243103   3.923   4.330   6.762  0.0698 -0.0648 -0.5211
14309SOL     OW43104   0.244   7.952   0.428 -0.1211  0.0876  0.0559
14309SOL    HW143105   0.209   8.042   0.401  1.1543  0.7632  0.5564
14309SOL    HW243106   0.328   7.932   0.377 -1.4868 -1.8051 -1.6412
14310SOL     OW43107   2.509   3.236   6.055  0.8497 -0.3739 -0.3084
14310SOL    HW143108   2.558   3.171   6.113  0.2328 -1.0207 -0.4938
14310SOL    HW243109   2.416   3.249   6.090  1.0661  0.6411 -0.1069
14311SOL     OW43110   4.816   7.774   0.820  0.5630 -0.1140  0.4055
14311SOL    HW143111   4.767   7.689   0.841 -0.2229  0.1780 -0.2084
14311SOL    HW243112   4.884   7.755   0.749 -0.3221 -0.0309 -0.4840
14312SOL     OW43113   4.059   8.721   7.501  0.6323  0.5066 -0.4489
14312SOL    HW143114   4.110   8.712   7.415 -1.7074 -1.9245 -1.7290
14312SOL    HW243115   3.961   8.728   7.481 -0.2000 -2.3384  1.9591
14313SOL     OW43116   1.034   2.880   3.090 -0.3080  0.3399 -0.5229
14313SOL    HW143117   1.029   2.979   3.093  0.3076  0.4636 -2.3853
14313SOL    HW243118   1.023   2.849   2.995 -0.0362 -1.3390 -0.0361
14314SOL     OW43119   2.654   0.823   7.383  0.1347 -0.6811 -0.3297
14314SOL    HW143120   2.735   0.783   7.340  1.4103  0.8139  0.6166
14314SOL    HW243121   2.576   0.762   7.368  1.2395 -1.7944 -1.9031
14315SOL     OW43122   4.128   2.257   5.734 -0.1037 -0.0850  0.5808
14315SOL    HW143123   4.088   2.326   5.794 -0.8388 -1.1061  1.2950
14315SOL    HW243124   4.071   2.245   5.653 -0.7492 -0.8349  1.1282
14316SOL     OW43125   4.146   3.601   2.401 -0.5288 -0.2161  1.0818
14316SOL    HW143126   4.202   3.523   2.370 -0.8408 -0.3776  0.9239
14316SOL    HW243127   4.085   3.630   2.328 -0.7459 -0.1229  1.2992
14317SOL     OW43128   4.223   5.105   1.344  0.1685 -0.3511 -0.0260
14317SOL    HW143129   4.135   5.060   1.330  1.0577 -2.6002  1.1450
14317SOL    HW243130   4.277   5.100   1.260  0.6626 -2.5631  0.3537
14318SOL     OW43131   6.778   6.115   2.497  0.0726 -0.1615 -0.1841
14318SOL    HW143132   6.855   6.138   2.438 -0.2420 -0.2961 -0.6569
14318SOL    HW243133   6.703   6.180   2.481 -0.0239 -0.2140  0.0510
14319SOL     OW43134   2.155   2.204   8.151 -0.1966 -0.1580  0.3743
14319SOL    HW143135   2.071   2.194   8.098  0.0050  3.5306 -0.9727
14319SOL    HW243136   2.193   2.114   8.171 -4.2727 -2.0031  0.8750
14320SOL     OW43137   2.040   0.246   4.696 -0.3972  0.0932  0.7559
14320SOL    HW143138   1.942   0.238   4.714 -0.3757  0.0079  0.8374
14320SOL    HW243139   2.055   0.304   4.617 -0.5114  0.1575  0.7818
14321SOL     OW43140   3.852   5.833   8.830 -0.5177  0.0818  0.2758
14321SOL    HW143141   3.797   5.799   8.754  0.3678  2.3702 -1.5138
14321SOL    HW243142   3.936   5.780   8.838 -1.4751 -1.3956  0.9717
14322SOL     OW43143   0.990   2.482   3.020 -0.7499  0.1751  0.3254
14322SOL    HW143144   1.047   2.564   3.019  0.8140 -0.8378 -1.8313
14322SOL    HW243145   0.897   2.507   3.047  0.0522  2.3402  1.3422
14323SOL     OW43146   2.700   3.966   8.204  0.4304 -0.1794  0.4016
14323SOL    HW143147   2.689   4.008   8.114  1.7682  0.1054  0.3551
14323SOL    HW243148   2.760   4.023   8.260  0.0945 -0.6650  1.2779
14324SOL     OW43149   3.689   6.995   7.301 -0.0697  0.2507  0.0335
14324SOL    HW143150   3.763   7.006   7.368  0.3817 -0.9407 -0.2298
14324SOL    HW243151   3.610   6.954   7.347 -0.4766  1.2447  0.2480
14325SOL     OW43152   4.469   0.125   5.999 -0.2352 -0.0932  0.2030
14325SOL    HW143153   4.520   0.151   6.080  2.2140  0.3978 -1.4083
14325SOL    HW243154   4.409   0.200   5.971  0.8152  0.7172  0.1142
14326SOL     OW43155   2.617   1.443   6.310 -0.8226  0.3247  0.3250
14326SOL    HW143156   2.640   1.365   6.253 -0.2373  1.2226 -0.7135
14326SOL    HW243157   2.663   1.436   6.398 -1.4854 -0.9216  0.5909
14327SOL     OW43158   7.839   2.711   2.429 -0.2534  0.3878 -0.1176
14327SOL    HW143159   7.792   2.799   2.437 -1.7065 -0.4910  2.3869
14327SOL    HW243160   7.790   2.653   2.364 -0.7924  0.5676  0.1227
14328SOL     OW43161   7.203   0.416   4.314  0.1383  0.3649  0.4965
14328SOL    HW143162   7.264   0.371   4.379 -0.0334  0.9746  1.0959
14328SOL    HW243163   7.242   0.504   4.287  0.6114 -0.2399 -0.8886
14329SOL     OW43164   1.535   5.865   6.759  0.1246  0.4357 -0.9554
14329SOL    HW143165   1.537   5.788   6.694  3.0672  0.6669 -1.2766
14329SOL    HW243166   1.520   5.830   6.851  1.6191 -0.6261 -1.0670
14330SOL     OW43167   1.312   2.802   7.519  0.0925  0.6579  0.2319
14330SOL    HW143168   1.385   2.735   7.530 -1.0724 -0.6081  0.5511
14330SOL    HW243169   1.268   2.819   7.607 -1.7559 -0.7152 -0.3603
14331SOL     OW43170   4.809   8.682   4.566 -0.7158  0.3181 -0.0717
14331SOL    HW143171   4.818   8.771   4.611 -0.1312  0.3753 -0.2938
14331SOL    HW243172   4.738   8.688   4.495  1.1828  1.4147 -1.9836
14332SOL     OW43173   7.975   1.220   0.997  0.6463 -0.7267 -0.3271
14332SOL    HW143174   7.972   1.120   0.995 -0.2629 -0.7053 -1.1964
14332SOL    HW243175   7.904   1.256   0.936 -0.2623  0.4606  1.3759
14333SOL     OW43176   3.508   8.422   1.232  0.2103 -0.1224 -0.0002
14333SOL    HW143177   3.541   8.328   1.226 -1.7884 -0.9054  0.3244
14333SOL    HW243178   3.479   8.452   1.141 -1.1400 -0.6430  0.2278
14334SOL     OW43179   2.683   6.212   3.637 -0.1519 -0.4330  0.5416
14334SOL    HW143180   2.626   6.209   3.720  1.4873 -1.9371  1.6803
14334SOL    HW243181   2.762   6.270   3.653 -0.8383  0.9062 -0.7198
14335SOL     OW43182   7.902   2.370   8.459 -0.4011 -0.1540 -0.3279
14335SOL    HW143183   7.949   2.450   8.421  2.1847 -0.8823  1.0695
14335SOL    HW243184   7.841   2.399   8.532  0.5819  0.5614  0.2279
14336SOL     OW43185   4.003   1.101   2.430  0.1532 -0.0378  0.0810
14336SOL    HW143186   3.906   1.123   2.416 -0.1837 -2.4296 -1.7935
14336SOL    HW243187   4.059   1.169   2.383 -0.6989 -0.2506 -1.2944
14337SOL     OW43188   3.506   5.103   3.928 -0.7530 -0.0226  0.1841
14337SOL    HW143189   3.562   5.181   3.955 -0.7506  0.3769 -0.9175
14337SOL    HW243190   3.516   5.030   3.995  0.0824  0.5196  0.6711
14338SOL     OW43191   8.177   4.512   0.461  0.3249 -0.2726 -0.2957
14338SOL    HW143192   8.110   4.438   0.465  0.4488 -0.3665  0.0161
14338SOL    HW243193   8.196   4.546   0.553 -0.5618  0.8993 -0.5152
14339SOL     OW43194   0.241   8.747   7.311 -0.3593 -0.0775  0.1287
14339SOL    HW143195   0.321   8.802   7.289  0.0871 -0.8657 -0.2795
14339SOL    HW243196   0.174   8.803   7.360  0.2612  0.6981  0.1106
14340SOL     OW43197   4.451   7.073   0.203 -0.1733  0.0115 -0.3167
14340SOL    HW143198   4.367   7.076   0.149  0.0516  0.6222 -0.6427
14340SOL    HW243199   4.528   7.099   0.145  0.7875 -3.8186 -1.0127
14341SOL     OW43200   8.458   8.395   7.804 -0.7638 -0.1458 -0.4565
14341SOL    HW143201   8.484   8.325   7.870 -0.6320  3.0630  3.2414
14341SOL    HW243202   8.526   8.468   7.804 -1.5678  0.7321 -3.1213
14342SOL     OW43203   1.189   3.788   2.783 -0.5658  0.5202  0.1804
14342SOL    HW143204   1.227   3.762   2.694 -2.0278 -0.8592 -0.1081
14342SOL    HW243205   1.169   3.886   2.784 -0.2073  0.6175 -0.8958
14343SOL     OW43206   5.512   5.927   8.056 -0.5613 -0.0377  0.1154
14343SOL    HW143207   5.530   5.926   8.155  2.0701 -0.4015 -0.2985
14343SOL    HW243208   5.511   6.021   8.023  0.2999  0.0275  0.2452
14344SOL     OW43209   3.259   8.855   4.133  0.0577 -0.0951  0.2590
14344SOL    HW143210   3.229   8.941   4.175  1.2815  0.3390  0.2660
14344SOL    HW243211   3.358   8.846   4.142 -0.0511 -1.4983  0.2219
14345SOL     OW43212   6.991   4.671   0.404 -0.6354  0.9269 -0.0653
14345SOL    HW143213   6.992   4.609   0.325  2.1855  1.0200 -0.2097
14345SOL    HW243214   7.048   4.632   0.476 -1.4684  1.8601  1.1226
14346SOL     OW43215   6.014   6.552   2.364 -0.1381 -0.3969  0.2981
14346SOL    HW143216   6.036   6.458   2.336 -0.5939 -0.2839 -0.4462
14346SOL    HW243217   5.916   6.559   2.382 -0.3226  0.2461 -0.8939
14347SOL     OW43218   3.227   5.524   5.170 -0.0689  0.6689  0.0672
14347SOL    HW143219   3.170   5.494   5.247 -1.2478  0.1959 -0.9612
14347SOL    HW243220   3.257   5.618   5.186 -1.5797  1.1239  0.4029
14348SOL     OW43221   6.456   4.326   6.494 -0.2607  0.0879  0.1987
14348SOL    HW143222   6.450   4.345   6.592 -0.5695 -0.7812  0.3588
14348SOL    HW243223   6.550   4.300   6.471 -0.7760 -2.6404  0.8562
14349SOL     OW43224   0.525   4.484   4.156  0.5280 -0.3136  0.0467
14349SOL    HW143225   0.586   4.419   4.112  1.0604 -0.1160  0.4790
14349SOL    HW243226   0.524   4.467   4.255  3.7897  2.7336  0.8111
14350SOL     OW43227   7.243   8.835   8.351 -0.0328 -0.3919  0.2876
14350SOL    HW143228   7.311   8.772   8.314  0.1133 -0.5073  0.7398
14350SOL    HW243229   7.282   8.927   8.356 -0.1667 -0.3076 -0.1522
14351SOL     OW43230   5.187   6.812   5.343  0.7169  0.4871 -0.7334
14351SOL    HW143231   5.270   6.762   5.365  0.8847  0.3885 -1.5628
14351SOL    HW243232   5.116   6.791   5.410  0.9839 -0.3827 -0.7156
14352SOL     OW43233   5.148   1.843   6.605  0.0753  0.3408 -0.3884
14352SOL    HW143234   5.221   1.861   6.539  1.2942 -1.5663  0.3300
14352SOL    HW243235   5.189   1.809   6.690 -1.5996  0.3893  0.4701
14353SOL     OW43236   5.915   8.761   4.143 -0.3161  0.5226  0.7015
14353SOL    HW143237   6.009   8.793   4.134 -0.7337  1.7577  0.5631
14353SOL    HW243238   5.896   8.692   4.073  0.3202  0.6663  0.3819
14354SOL     OW43239   4.382   1.214   7.198 -0.0737  0.3392  0.0079
14354SOL    HW143240   4.331   1.208   7.284  1.0225  1.5292  0.7881
14354SOL    HW243241   4.464   1.156   7.204 -0.0306  0.3720 -0.2508
14355SOL     OW43242   1.190   6.938   5.108  0.5578  0.6623 -0.3414
14355SOL    HW143243   1.199   7.011   5.177  0.4724  0.4290 -0.0810
14355SOL    HW243244   1.250   6.862   5.132  0.5632  0.5993 -0.5534
14356SOL     OW43245   7.743   1.784   8.668 -0.4372  0.2761  0.2293
14356SOL    HW143246   7.717   1.687   8.672  1.0585 -0.1510  0.1414
14356SOL    HW243247   7.824   1.798   8.724  0.1172  1.2354 -0.7995
14357SOL     OW43248   8.156   3.535   0.134 -0.4563 -0.3397 -0.3138
14357SOL    HW143249   8.197   3.556   0.223  0.3991 -0.5971 -0.6363
14357SOL    HW243250   8.060   3.508   0.146 -0.6418  0.6043  0.4223
14358SOL     OW43251   4.125   4.420   6.016  0.4784 -0.1487  0.1043
14358SOL    HW143252   4.173   4.392   5.933 -0.5404 -0.6860 -0.3185
14358SOL    HW243253   4.186   4.409   6.095  0.6239 -2.1076 -0.2333
14359SOL     OW43254   7.952   2.040   2.921  0.3139 -0.2795 -0.4490
14359SOL    HW143255   7.862   2.012   2.955 -0.9204 -0.1593 -3.2904
14359SOL    HW243256   7.969   2.135   2.948 -0.5389 -0.2089 -0.1031
14360SOL     OW43257   6.392   3.000   6.806  0.0407  0.1695  0.3554
14360SOL    HW143258   6.409   2.981   6.709 -1.1764  0.1227  0.1438
14360SOL    HW243259   6.410   3.097   6.824  1.3827 -0.0508  0.3520
14361SOL     OW43260   3.265   6.819   4.827 -0.5294 -0.0709  0.2844
14361SOL    HW143261   3.184   6.872   4.801 -0.2935  0.8675  1.4134
14361SOL    HW243262   3.248   6.772   4.913 -0.2393 -0.7456 -0.0159
14362SOL     OW43263   4.500   3.522   6.179  0.2079 -0.1186  0.0578
14362SOL    HW143264   4.569   3.589   6.205 -0.4833  0.6258  0.0406
14362SOL    HW243265   4.482   3.529   6.081 -0.8834  0.6962  0.2872
14363SOL     OW43266   0.717   8.483   3.089 -0.0048 -0.0495  0.0140
14363SOL    HW143267   0.766   8.523   3.166 -0.2285 -0.8938  0.6135
14363SOL    HW243268   0.776   8.482   3.009 -0.4893  2.8614 -0.4839
14364SOL     OW43269   6.017   6.980   2.474 -0.2344  0.1722  0.2360
14364SOL    HW143270   6.041   6.919   2.399 -1.2836 -1.1544  0.9373
14364SOL    HW243271   6.090   6.980   2.542 -0.3931 -0.6291  0.4173
14365SOL     OW43272   1.960   3.744   0.708 -0.1157 -0.2492 -1.1685
14365SOL    HW143273   1.995   3.777   0.620 -0.4313  0.2168 -1.1213
14365SOL    HW243274   1.877   3.795   0.732 -0.3296 -0.7395 -0.8556
14366SOL     OW43275   5.017   0.660   7.649  0.3606  0.0253 -0.2280
14366SOL    HW143276   5.045   0.706   7.733  0.2337 -0.2671 -0.0237
14366SOL    HW243277   4.996   0.728   7.578 -0.3265  0.2959  0.2267
14367SOL     OW43278   0.609   7.068   1.083  0.6364 -0.1450 -0.0551
14367SOL    HW143279   0.547   7.076   1.161 -0.5233  2.1487 -1.1166
14367SOL    HW243280   0.694   7.117   1.102  0.6152 -0.1344  0.0099
14368SOL     OW43281   2.922   2.567   1.862  0.2263 -0.0634  0.2429
14368SOL    HW143282   2.903   2.566   1.764  0.5494  0.3416  0.1747
14368SOL    HW243283   2.990   2.637   1.882  1.8948 -1.6576  0.4464
14369SOL     OW43284   0.274   0.484   7.860  0.5033 -0.3505  0.0784
14369SOL    HW143285   0.223   0.570   7.870  0.5288 -0.1352 -1.4290
14369SOL    HW243286   0.347   0.480   7.929 -0.0546  0.4164  0.7342
14370SOL     OW43287   8.786   7.622   2.918 -0.7813  0.4733  0.1689
14370SOL    HW143288   8.860   7.639   2.854 -0.5567 -0.4619  0.1661
14370SOL    HW243289   8.819   7.638   3.011 -0.4027 -0.4476  0.2071
14371SOL     OW43290   5.509   5.862   3.790  0.0391  0.2154  0.0835
14371SOL    HW143291   5.478   5.891   3.880 -0.8027 -1.0307  0.2274
14371SOL    HW243292   5.592   5.912   3.765  0.8505 -0.0870  1.9681
14372SOL     OW43293   8.289   2.083   3.546  0.1513 -0.0618 -0.6747
14372SOL    HW143294   8.242   2.127   3.469  0.6527  0.0044 -0.9487
14372SOL    HW243295   8.221   2.041   3.606 -0.3178  0.8232 -0.5646
14373SOL     OW43296   2.607   3.607   1.095  0.1306  0.3762 -0.1212
14373SOL    HW143297   2.564   3.621   1.184  0.0810  0.0488 -0.0937
14373SOL    HW243298   2.536   3.589   1.026  0.1658  0.6748 -0.2355
14374SOL     OW43299   2.252   8.487   0.527 -0.4610  0.3710  0.1907
14374SOL    HW143300   2.323   8.554   0.507  0.3009 -0.2601  0.6887
14374SOL    HW243301   2.267   8.405   0.471 -1.1848  0.4833 -0.1743
14375SOL     OW43302   8.255   8.726   2.077 -0.4003  0.5973 -0.3861
14375SOL    HW143303   8.184   8.736   2.008 -0.4167  0.2181 -0.4273
14375SOL    HW243304   8.331   8.673   2.038 -0.1918  0.8124 -0.2736
14376SOL     OW43305   3.815   6.111   5.342  0.1302 -0.1993  0.2182
14376SOL    HW143306   3.848   6.198   5.378  1.2702 -0.3300 -0.4614
14376SOL    HW243307   3.715   6.111   5.342  0.1136  0.7640  1.0229
14377SOL     OW43308   7.951   0.639   8.133 -0.2393 -0.0187 -0.2552
14377SOL    HW143309   7.938   0.717   8.194 -0.6648  0.4729 -0.9596
14377SOL    HW243310   7.862   0.604   8.104 -0.0434 -0.1697 -0.6880
14378SOL     OW43311   7.243   4.050   0.433  0.0071 -0.1264 -0.2265
14378SOL    HW143312   7.267   3.996   0.514 -1.0926  0.7991  0.7576
14378SOL    HW243313   7.151   4.025   0.403  0.2445 -0.1587 -0.9427
14379SOL     OW43314   8.618   3.530   6.894  0.6708  0.0378  0.0839
14379SOL    HW143315   8.575   3.561   6.810 -0.5442 -0.0841  0.6390
14379SOL    HW243316   8.664   3.607   6.938 -0.6059  0.6337  0.4273
14380SOL     OW43317   0.858   0.317   2.841 -1.1668 -0.2863  0.1183
14380SOL    HW143318   0.777   0.330   2.784 -0.5018  0.2983 -0.7074
14380SOL    HW243319   0.854   0.379   2.919 -1.7484 -0.6107  0.3523
14381SOL     OW43320   6.309   4.045   6.072 -0.2188 -0.3371  0.2943
14381SOL    HW143321   6.388   4.083   6.120  0.5627 -0.8816 -0.5346
14381SOL    HW243322   6.231   4.106   6.083  0.6369  0.8284  0.1060
14382SOL     OW43323   6.679   8.465   7.072  0.1865 -0.0303 -0.2125
14382SOL    HW143324   6.752   8.492   7.134  0.3724 -0.1307 -0.3829
14382SOL    HW243325   6.682   8.366   7.059 -0.5693 -0.1609  0.5133
14383SOL     OW43326   2.992   3.521   0.158 -0.3186 -0.4867 -0.1812
14383SOL    HW143327   3.032   3.479   0.239 -1.3759  2.7447  2.2208
14383SOL    HW243328   3.062   3.571   0.108 -0.4483  1.8078  1.7601
14384SOL     OW43329   5.926   0.596   1.311  0.2976  0.1871 -0.4926
14384SOL    HW143330   5.835   0.637   1.309  0.5989  0.8647 -0.8674
14384SOL    HW243331   5.992   0.660   1.271  1.2609  0.5347  1.4788
14385SOL     OW43332   0.136   4.820   7.840 -0.2360  0.4102  0.0641
14385SOL    HW143333   0.167   4.905   7.799  1.5712  0.0576  0.5938
14385SOL    HW243334   0.132   4.831   7.940 -1.4406  0.2984  0.0447
14386SOL     OW43335   2.001   7.546   6.056 -0.0353 -0.3688 -0.6091
14386SOL    HW143336   2.078   7.486   6.033  1.3359  0.4693  1.4505
14386SOL    HW243337   2.025   7.641   6.033 -0.3663 -0.0809  0.1955
14387SOL     OW43338   5.354   2.632   8.567  0.1076 -0.2474  0.0657
14387SOL    HW143339   5.284   2.631   8.496  0.7252 -1.6478 -0.5651
14387SOL    HW243340   5.314   2.601   8.653 -0.3655  0.3097  0.0519
14388SOL     OW43341   5.489   7.394   2.107  0.1676  0.6064 -0.9366
14388SOL    HW143342   5.531   7.306   2.129 -0.4191  0.5105 -0.1602
14388SOL    HW243343   5.526   7.428   2.021  0.2307 -0.5103 -1.3626
14389SOL     OW43344   0.573   5.143   2.712 -0.0006  0.3156  0.4214
14389SOL    HW143345   0.642   5.215   2.708  0.6402 -0.2028  1.6042
14389SOL    HW243346   0.613   5.061   2.754 -1.6875  0.4381  2.4046
14390SOL     OW43347   2.708   2.006   7.817 -0.1414  0.1641 -0.5439
14390SOL    HW143348   2.663   1.924   7.779 -1.0289  0.6727 -0.6289
14390SOL    HW243349   2.723   2.072   7.744 -1.2811  0.8897 -0.1590
14391SOL     OW43350   8.391   8.115   2.700  0.3095 -0.0719 -0.3761
14391SOL    HW143351   8.299   8.130   2.662  0.1656 -1.7160 -0.7433
14391SOL    HW243352   8.453   8.185   2.666 -0.6155  0.5612 -0.8099
14392SOL     OW43353   7.082   4.324   6.985 -0.3191 -0.5258 -0.2987
14392SOL    HW143354   7.180   4.322   6.966 -0.3107 -2.6077 -0.3075
14392SOL    HW243355   7.067   4.333   7.084 -0.0964 -0.5123 -0.2654
14393SOL     OW43356   4.863   1.595   3.147  0.3684  0.4652 -0.2557
14393SOL    HW143357   4.958   1.584   3.120  0.1696  0.5005 -1.0046
14393SOL    HW243358   4.857   1.645   3.233  0.9968  1.1662 -0.6117
14394SOL     OW43359   7.548   8.069   4.602  0.0873 -0.3894 -0.4943
14394SOL    HW143360   7.562   8.137   4.673 -0.6292  1.4601 -2.0191
14394SOL    HW243361   7.635   8.048   4.557  0.1393  0.4245 -0.7766
14395SOL     OW43362   2.954   8.365   2.619  0.1295 -0.2076  0.6929
14395SOL    HW143363   2.880   8.309   2.653  0.5124 -0.7688  0.6138
14395SOL    HW243364   2.934   8.394   2.525 -0.9106  1.3167  1.3375
14396SOL     OW43365   2.638   5.258   0.995  0.2943  0.1265 -1.2323
14396SOL    HW143366   2.717   5.205   0.964 -0.2621 -2.7728  1.7985
14396SOL    HW243367   2.669   5.331   1.057  0.7120  0.5390 -1.9083
14397SOL     OW43368   2.289   2.233   4.208 -0.1167 -0.1110 -0.8576
14397SOL    HW143369   2.298   2.143   4.167  0.2270  0.1074 -1.2707
14397SOL    HW243370   2.321   2.303   4.144 -4.2712  0.7522 -2.2878
14398SOL     OW43371   0.924   5.490   8.346 -0.1635  0.0498  0.0419
14398SOL    HW143372   0.919   5.560   8.275 -1.0903 -0.5219 -0.4680
14398SOL    HW243373   0.872   5.520   8.426 -0.9132 -0.2272 -0.3348
14399SOL     OW43374   6.211   3.812   5.345 -0.3412 -0.4693  0.1258
14399SOL    HW143375   6.279   3.844   5.411  2.3087 -1.4962 -1.9257
14399SOL    HW243376   6.200   3.880   5.273 -0.0751 -1.0724 -0.4947
14400SOL     OW43377   4.157   0.184   6.186 -0.1678 -0.1051  0.3478
14400SOL    HW143378   4.171   0.130   6.269  2.8427  2.7133  1.9341
14400SOL    HW243379   4.170   0.126   6.106  2.4430 -1.9441  1.9251
14401SOL     OW43380   8.418   5.332   5.683  0.3404 -0.5263 -0.1237
14401SOL    HW143381   8.456   5.370   5.599  0.4043  1.2233  0.6689
14401SOL    HW243382   8.469   5.366   5.762 -0.4058 -1.2736  0.7053
14402SOL     OW43383   7.168   1.870   4.007  0.3285 -0.3029  0.5892
14402SOL    HW143384   7.080   1.906   4.037  0.3084 -0.8444  1.2065
14402SOL    HW243385   7.231   1.865   4.085  0.0602 -2.3738  0.7286
14403SOL     OW43386   1.684   4.329   2.863  0.0699  0.0197 -0.0300
14403SOL    HW143387   1.743   4.344   2.943 -1.9899  2.8208  1.1235
14403SOL    HW243388   1.621   4.255   2.881  1.2323 -1.0184 -0.1004
14404SOL     OW43389   5.009   1.968   1.893  0.7365 -0.8794  0.2919
14404SOL    HW143390   5.027   1.900   1.822 -1.3640  0.6132 -1.8514
14404SOL    HW243391   5.081   2.038   1.890  0.4627 -0.6089 -0.7417
14405SOL     OW43392   0.565   2.722   5.410 -0.4327 -0.5307 -0.0207
14405SOL    HW143393   0.657   2.728   5.369 -0.3866  0.9305  0.2553
14405SOL    HW243394   0.564   2.647   5.476  1.1945  0.6613  1.4660
14406SOL     OW43395   8.375   4.500   0.833  0.3180 -0.3120 -0.1895
14406SOL    HW143396   8.409   4.496   0.739 -0.8399 -2.3341 -0.5744
14406SOL    HW243397   8.450   4.480   0.896  0.7259 -0.6538 -0.7737
14407SOL     OW43398   4.070   0.209   4.500  0.0995 -0.0157  0.4663
14407SOL    HW143399   4.086   0.187   4.597 -2.2211 -0.1160  0.8807
14407SOL    HW243400   4.082   0.126   4.445 -1.1516 -0.6111  1.0432
14408SOL     OW43401   3.929   7.302   7.850  0.5831  0.2421 -0.0818
14408SOL    HW143402   3.943   7.321   7.753 -1.8740  2.9729 -0.0685
14408SOL    HW243403   3.988   7.362   7.904  1.5964 -0.9316  0.1441
14409SOL     OW43404   6.886   5.353   2.723  0.2713  0.1477 -0.4498
14409SOL    HW143405   6.806   5.404   2.756  0.2127  0.1189 -0.5464
14409SOL    HW243406   6.937   5.316   2.801 -0.2812 -0.5524 -0.4053
14410SOL     OW43407   4.223   7.915   3.444 -0.1961 -0.0026  0.1828
14410SOL    HW143408   4.227   7.852   3.521  2.0366 -1.7099 -1.2214
14410SOL    HW243409   4.290   7.988   3.457  0.7045 -0.7029 -0.4473
14411SOL     OW43410   2.098   1.029   1.699 -0.2282 -0.4293  0.5031
14411SOL    HW143411   2.102   0.937   1.739 -0.2078 -1.2502 -1.2994
14411SOL    HW243412   2.119   1.024   1.602 -0.4422  1.4792  0.3234
14412SOL     OW43413   5.757   4.818   5.181 -0.0290  0.5618 -0.1477
14412SOL    HW143414   5.795   4.893   5.235 -1.1109  0.3014  1.0372
14412SOL    HW243415   5.805   4.733   5.203 -2.7428 -0.3095  3.3479
14413SOL     OW43416   7.233   3.261   7.354  0.1178 -0.1019 -0.1289
14413SOL    HW143417   7.309   3.238   7.292 -0.1514  2.1980 -1.4420
14413SOL    HW243418   7.167   3.186   7.355  1.7326 -1.5939  0.0016
14414SOL     OW43419   3.469   0.207   0.332  0.0786 -0.3840 -0.1866
14414SOL    HW143420   3.415   0.150   0.271  2.3346 -1.1859 -1.5498
14414SOL    HW243421   3.477   0.163   0.422 -0.4415 -0.8415 -0.3586
14415SOL     OW43422   5.039   1.479   1.323  0.3616 -0.0015 -0.3474
14415SOL    HW143423   4.941   1.461   1.310 -0.3298  1.6349  1.8316
14415SOL    HW243424   5.062   1.568   1.284  1.2554 -0.8146 -1.7367
14416SOL     OW43425   4.560   4.001   1.564 -0.1610  0.4595 -0.0877
14416SOL    HW143426   4.643   3.974   1.515 -0.7793 -0.9798 -0.4204
14416SOL    HW243427   4.510   4.069   1.511  0.8202  1.3718  0.1416
14417SOL     OW43428   2.848   4.182   5.191  0.0592 -0.5432 -0.2154
14417SOL    HW143429   2.878   4.270   5.229  1.8980 -0.9452 -0.6362
14417SOL    HW243430   2.757   4.160   5.226 -1.2895  2.3955 -1.5560
14418SOL     OW43431   4.517   1.453   5.410  0.0688  0.0664  0.2259
14418SOL    HW143432   4.569   1.372   5.384  1.2481  1.0333 -0.5776
14418SOL    HW243433   4.509   1.513   5.330 -0.3062  0.9891  0.9442
14419SOL     OW43434   6.862   8.219   3.934  0.3393  0.0381  0.4236
14419SOL    HW143435   6.819   8.201   3.846 -1.2372  1.5089  0.8405
14419SOL    HW243436   6.803   8.187   4.008  0.9742  0.1041  0.9743
14420SOL     OW43437   5.525   0.786   6.958 -0.5168 -0.3886  0.3422
14420SOL    HW143438   5.465   0.725   7.010 -1.4679 -2.0581 -2.4836
14420SOL    HW243439   5.588   0.731   6.902  2.9596  1.3112  2.2840
14421SOL     OW43440   0.002   0.383   7.141  0.4207  0.0422 -0.4808
14421SOL    HW143441   0.017   0.448   7.067  0.3635 -0.3347 -0.8323
14421SOL    HW243442   0.037   0.293   7.114 -0.6179 -0.3704 -0.5129
14422SOL     OW43443   4.980   6.054   0.173 -0.3614  0.0661 -0.6992
14422SOL    HW143444   5.009   5.961   0.153  0.9638  0.4408 -0.6004
14422SOL    HW243445   5.005   6.114   0.098 -0.9052  0.4129 -0.6123
14423SOL     OW43446   4.965   7.644   0.569 -0.3486 -0.0582 -0.0329
14423SOL    HW143447   4.884   7.642   0.510 -2.2107  1.9342  2.2638
14423SOL    HW243448   5.013   7.731   0.555  0.0231 -0.2035  0.3358
14424SOL     OW43449   3.959   6.196   2.332  0.4117 -0.1124 -0.4996
14424SOL    HW143450   4.046   6.157   2.301 -0.6041 -1.1401 -2.1978
14424SOL    HW243451   3.922   6.141   2.406  0.8915 -0.0445 -0.2050
14425SOL     OW43452   3.711   7.405   8.609  0.2366 -0.0482  0.2781
14425SOL    HW143453   3.674   7.492   8.642  1.8779  0.3995  1.0548
14425SOL    HW243454   3.681   7.390   8.515 -1.3434  0.5728  0.6479
14426SOL     OW43455   4.446   2.649   7.858 -0.1360 -0.1706  0.1363
14426SOL    HW143456   4.512   2.715   7.821  1.5529 -2.1716 -0.5738
14426SOL    HW243457   4.475   2.556   7.835 -3.4871 -1.1618 -0.6373
14427SOL     OW43458   5.734   5.203   7.828  0.0749 -0.7690 -0.0823
14427SOL    HW143459   5.735   5.292   7.872  0.6641  0.0102 -1.6052
14427SOL    HW243460   5.811   5.148   7.861  0.8047 -0.0123 -0.5064
14428SOL     OW43461   8.170   3.862   7.717 -0.5239 -0.3767  0.2877
14428SOL    HW143462   8.176   3.779   7.772  1.1108 -0.0707  0.6243
14428SOL    HW243463   8.111   3.929   7.763 -1.1296 -1.0081  0.4445
14429SOL     OW43464   8.401   1.479   1.674  0.4047 -0.4218 -0.7922
14429SOL    HW143465   8.395   1.495   1.773  0.3060  3.5227 -1.2543
14429SOL    HW243466   8.310   1.454   1.640  0.1613 -0.6214 -0.0277
14430SOL     OW43467   7.803   5.075   1.603 -0.1335 -0.3156  0.9101
14430SOL    HW143468   7.708   5.081   1.573  0.1177  0.9870  0.2951
14430SOL    HW243469   7.843   4.989   1.570 -0.2098  0.5172 -1.5596
14431SOL     OW43470   3.648   6.875   2.045 -0.5197 -0.3133  0.8753
14431SOL    HW143471   3.690   6.831   1.966  0.9744 -0.6698  1.8351
14431SOL    HW243472   3.548   6.867   2.038 -0.5125  0.9232 -1.6580
14432SOL     OW43473   2.638   4.608   4.143  0.2625 -0.4681 -0.4187
14432SOL    HW143474   2.653   4.661   4.060 -1.1746  0.2301 -0.2607
14432SOL    HW243475   2.726   4.573   4.176  1.2404  1.5281 -0.7206
14433SOL     OW43476   7.706   1.097   0.462 -0.6621  0.6395 -0.3956
14433SOL    HW143477   7.611   1.088   0.489 -0.7169  2.5924  0.2422
14433SOL    HW243478   7.764   1.049   0.528 -1.1724 -0.6251 -0.8321
14434SOL     OW43479   5.020   3.713   7.937  0.1127  0.1444 -0.2337
14434SOL    HW143480   4.952   3.784   7.918  0.4435  0.5058 -0.0824
14434SOL    HW243481   5.111   3.749   7.919  0.3199 -0.0570  0.4040
14435SOL     OW43482   4.078   4.884   5.836 -0.6017 -0.0584 -0.0433
14435SOL    HW143483   3.997   4.846   5.881 -0.7294 -2.9048 -2.3797
14435SOL    HW243484   4.146   4.811   5.823  1.2333  1.6451 -0.5573
14436SOL     OW43485   7.627   4.562   8.300 -0.7408  0.0067 -0.0844
14436SOL    HW143486   7.635   4.469   8.263 -0.3588  0.1836 -0.4527
14436SOL    HW243487   7.554   4.611   8.252  1.2121  0.9912 -2.2612
14437SOL     OW43488   7.992   6.516   1.175 -0.1148  0.5443  0.2183
14437SOL    HW143489   8.071   6.533   1.116  0.3913  2.8810  1.4179
14437SOL    HW243490   7.910   6.556   1.134  0.1816  1.9039  0.8788
14438SOL     OW43491   2.804   3.926   7.110  0.4168  0.5633  0.2564
14438SOL    HW143492   2.821   3.867   7.189 -0.4814  1.8270  1.4405
14438SOL    HW243493   2.730   3.887   7.055 -0.3708  0.6855  1.1866
14439SOL     OW43494   0.998   3.516   5.717  0.1791 -0.3136  0.1511
14439SOL    HW143495   1.034   3.609   5.724  0.5977 -0.2151 -2.1900
14439SOL    HW243496   1.045   3.457   5.782 -0.5354  1.1845  2.1246
14440SOL     OW43497   1.089   4.439   5.606  0.3776 -0.4664  0.7152
14440SOL    HW143498   1.181   4.442   5.567  0.0888  0.9570  0.0970
14440SOL    HW243499   1.025   4.403   5.538  0.2296 -0.0200  0.6163
14441SOL     OW43500   4.942   0.450   5.280  0.3055 -0.0378  0.3617
14441SOL    HW143501   4.956   0.362   5.234  1.1559 -0.9841  2.3356
14441SOL    HW243502   5.028   0.481   5.320 -0.4716  0.5489  1.6340
14442SOL     OW43503   8.441   3.272   0.418 -0.3254  0.0294  0.2734
14442SOL    HW143504   8.456   3.292   0.321 -1.0409 -0.3955  0.0725
14442SOL    HW243505   8.351   3.305   0.445 -0.0090  0.4135  0.8727
14443SOL     OW43506   4.366   6.769   4.516 -0.2500  0.0831 -0.1882
14443SOL    HW143507   4.316   6.683   4.505  0.6705 -0.7143  1.5268
14443SOL    HW243508   4.301   6.845   4.508 -1.2232 -0.7827 -0.9065
14444SOL     OW43509   4.564   1.580   7.581 -0.3630  0.5206  0.0797
14444SOL    HW143510   4.498   1.655   7.587 -0.8637  0.2333 -1.3308
14444SOL    HW243511   4.612   1.586   7.493  0.7738  0.1318  0.6624
14445SOL     OW43512   0.074   2.462   1.984  0.4977 -0.2432 -0.5108
14445SOL    HW143513   0.004   2.397   2.015  1.2720 -0.2935  1.2028
14445SOL    HW243514   0.073   2.466   1.884 -3.0021  0.9129 -0.5659
14446SOL     OW43515   4.434   8.532   2.525 -0.1300  0.3431 -0.7205
14446SOL    HW143516   4.447   8.605   2.592 -0.0738  0.2397 -0.6179
14446SOL    HW243517   4.448   8.569   2.433  0.4250  0.3466 -0.6411
14447SOL     OW43518   5.408   4.022   2.949  1.0568 -0.0639  0.0966
14447SOL    HW143519   5.323   3.980   2.916  1.4431  1.1947 -2.8903
14447SOL    HW243520   5.486   3.970   2.916  1.5237 -0.7276  2.1140
14448SOL     OW43521   0.879   3.277   6.171 -0.2874  0.4374 -0.2027
14448SOL    HW143522   0.965   3.321   6.146 -0.1957  0.7229  0.5654
14448SOL    HW243523   0.885   3.245   6.266 -0.7482 -0.2472 -0.3947
14449SOL     OW43524   8.837   5.940   3.942 -0.4013 -0.8152 -0.1979
14449SOL    HW143525   8.892   5.861   3.916  0.2116 -0.6138  0.4337
14449SOL    HW243526   8.755   5.910   3.991 -0.7649 -1.1091 -0.9787
14450SOL     OW43527   4.892   3.998   4.534 -0.1819 -0.0075  0.0859
14450SOL    HW143528   4.871   4.095   4.530 -0.3124 -0.0699 -0.9857
14450SOL    HW243529   4.813   3.945   4.504  0.3332 -0.3768 -0.6651
14451SOL     OW43530   6.704   2.064   6.540 -0.2449  0.2068  0.1364
14451SOL    HW143531   6.605   2.057   6.548 -0.2766 -0.9321 -0.9781
14451SOL    HW243532   6.744   1.972   6.547  0.7400  0.6555  0.5868
14452SOL     OW43533   0.845   2.350   0.762 -0.2946  0.0066 -0.0089
14452SOL    HW143534   0.850   2.445   0.792 -0.1794  0.0228 -0.0750
14452SOL    HW243535   0.923   2.299   0.800 -0.3847 -0.0723  0.0683
14453SOL     OW43536   5.845   5.513   6.369  0.1440  0.6634  0.0788
14453SOL    HW143537   5.891   5.551   6.289 -1.2931  1.0127 -0.6233
14453SOL    HW243538   5.746   5.508   6.351 -0.2016  0.6844  1.8107
14454SOL     OW43539   7.775   6.905   7.406 -0.0549  0.1423  0.3444
14454SOL    HW143540   7.818   6.994   7.424  3.0877 -1.5597  2.0702
14454SOL    HW243541   7.791   6.880   7.310  0.5726  0.6543  0.3093
14455SOL     OW43542   0.358   4.379   0.741 -0.1572 -0.2804 -0.4549
14455SOL    HW143543   0.356   4.313   0.817  1.9424 -1.2443 -1.1684
14455SOL    HW243544   0.306   4.341   0.664 -0.1256 -0.4752 -0.3826
14456SOL     OW43545   3.174   8.778   0.894  0.1708 -0.1799  0.3620
14456SOL    HW143546   3.219   8.739   0.814 -2.3216  1.6061 -2.0884
14456SOL    HW243547   3.126   8.706   0.944 -0.6898 -0.9772 -1.5174
14457SOL     OW43548   4.817   1.185   2.292 -0.1097 -0.3000  0.0126
14457SOL    HW143549   4.870   1.270   2.301 -1.2672  0.7756 -2.4095
14457SOL    HW243550   4.756   1.176   2.371  1.0708  0.3161  1.0450
14458SOL     OW43551   1.114   0.105   5.585  0.1052 -0.1659  0.6202
14458SOL    HW143552   1.146   0.161   5.661  0.9920 -1.5708  1.3197
14458SOL    HW243553   1.014   0.106   5.581  0.0895  2.6025 -0.2978
14459SOL     OW43554   0.202   7.094   3.200  0.4612  0.3660  0.1094
14459SOL    HW143555   0.280   7.144   3.162  0.4386  0.3878  0.0918
14459SOL    HW243556   0.120   7.114   3.146  0.1619  1.3653  0.9207
14460SOL     OW43557   6.617   8.521   1.007 -0.1385 -0.4940 -0.0185
14460SOL    HW143558   6.700   8.571   0.982  0.0236 -0.1734  1.1000
14460SOL    HW243559   6.624   8.426   0.977 -0.1027 -0.0609 -1.4396
14461SOL     OW43560   6.123   3.410   4.681 -0.2356 -0.9267  0.6255
14461SOL    HW143561   6.026   3.432   4.680 -0.2977 -1.1743  1.1194
14461SOL    HW243562   6.167   3.450   4.600 -0.4706  0.4277  1.1437
14462SOL     OW43563   7.746   7.091   5.717 -0.0527  0.2031  0.2432
14462SOL    HW143564   7.705   7.033   5.788  0.6225 -0.0401  0.4415
14462SOL    HW243565   7.810   7.155   5.759  0.8785 -0.4136 -0.2134
14463SOL     OW43566   5.205   8.299   8.026 -0.2471 -0.0430  0.3018
14463SOL    HW143567   5.287   8.329   8.074 -0.0747  1.6399 -0.9767
14463SOL    HW243568   5.229   8.261   7.937 -0.7181 -1.5785  0.7772
14464SOL     OW43569   3.626   8.014   7.535 -0.1672  0.0654  0.0030
14464SOL    HW143570   3.546   7.962   7.565  0.2356  0.3154  1.6321
14464SOL    HW243571   3.655   8.076   7.609  1.1055  0.4914 -0.8118
14465SOL     OW43572   7.534   4.761   7.821 -0.6541  0.5285 -0.2184
14465SOL    HW143573   7.487   4.781   7.907  0.6151 -0.1470  0.6885
14465SOL    HW243574   7.624   4.804   7.822  0.4121 -1.5415 -0.0455
14466SOL     OW43575   2.787   5.152   6.600  0.3929  0.5304 -0.3251
14466SOL    HW143576   2.718   5.209   6.645  0.1867  0.8706 -1.0460
14466SOL    HW243577   2.743   5.094   6.532  0.4629 -1.2573  1.0788
14467SOL     OW43578   2.746   3.636   7.045  0.2314  0.4604  0.7282
14467SOL    HW143579   2.674   3.677   6.989 -1.6238 -2.4612  0.7451
14467SOL    HW243580   2.720   3.644   7.142 -0.8920 -1.7488  0.6839
14468SOL     OW43581   2.066   8.126   7.016 -0.4038  0.1789 -0.2854
14468SOL    HW143582   2.123   8.191   6.966  0.4119  0.2506  0.6933
14468SOL    HW243583   2.116   8.093   7.096 -1.4846 -0.2990  0.2143
14469SOL     OW43584   4.769   2.109   2.410 -0.1845 -0.4631 -0.9044
14469SOL    HW143585   4.848   2.061   2.371  0.1147  1.1943 -2.4911
14469SOL    HW243586   4.694   2.109   2.343 -0.2226  1.0792 -0.8914
14470SOL     OW43587   5.812   4.464   7.287 -0.4159 -0.2166 -0.0495
14470SOL    HW143588   5.865   4.516   7.354 -2.1749  1.8505 -0.1690
14470SOL    HW243589   5.870   4.441   7.209  0.5632  1.1293  0.2538
14471SOL     OW43590   5.621   1.472   6.707 -0.0626 -0.3263  1.0276
14471SOL    HW143591   5.547   1.489   6.772 -1.0745 -1.5241  0.2303
14471SOL    HW243592   5.616   1.539   6.633 -0.0611 -0.1201  1.2131
14472SOL     OW43593   7.010   2.915   8.098 -0.0749 -0.3559 -0.2192
14472SOL    HW143594   7.005   2.816   8.086 -0.8329 -0.1128 -2.3576
14472SOL    HW243595   6.975   2.939   8.189  1.1508 -2.0972  0.7716
14473SOL     OW43596   0.332   3.850   2.963 -0.3883  0.2916  0.0454
14473SOL    HW143597   0.307   3.837   2.866 -0.3468  0.0533  0.0643
14473SOL    HW243598   0.272   3.794   3.020 -0.0537 -0.0013  0.1167
14474SOL     OW43599   8.333   4.311   5.207 -0.6020 -0.1778  0.3462
14474SOL    HW143600   8.286   4.236   5.161  0.7029 -0.1789 -1.0822
14474SOL    HW243601   8.307   4.397   5.164  1.7489 -0.3035 -1.5211
14475SOL     OW43602   4.848   5.805   1.841 -0.1412 -0.3721 -0.4442
14475SOL    HW143603   4.927   5.843   1.889  0.2116 -0.7701 -0.6976
14475SOL    HW243604   4.786   5.878   1.815  0.4285  0.0094 -0.7507
14476SOL     OW43605   0.375   0.873   7.148 -0.8020  0.1292  0.5350
14476SOL    HW143606   0.408   0.904   7.059 -0.4795 -1.6627 -0.0211
14476SOL    HW243607   0.275   0.879   7.151 -0.9764 -1.5933 -0.7179
14477SOL     OW43608   0.976   5.842   7.957 -0.3762  0.1502 -0.0760
14477SOL    HW143609   0.954   5.932   7.993 -1.8508  0.1073 -0.7777
14477SOL    HW243610   0.917   5.822   7.879  0.5852 -1.0341 -0.5320
14478SOL     OW43611   3.605   4.643   1.730  0.6013  0.6454  0.0359
14478SOL    HW143612   3.660   4.629   1.812  0.0688  1.9150  0.6278
14478SOL    HW243613   3.509   4.629   1.752  0.6257 -1.7270 -1.0302
14479SOL     OW43614   0.297   6.425   8.278 -0.1158 -0.0081  0.4404
14479SOL    HW143615   0.216   6.411   8.336 -1.2877  0.6500 -0.9451
14479SOL    HW243616   0.314   6.343   8.224 -0.0617 -0.0393  0.5059
14480SOL     OW43617   7.154   2.085   7.261  0.1404 -0.2776  0.2530
14480SOL    HW143618   7.253   2.098   7.267  0.3743 -1.0819 -1.3739
14480SOL    HW243619   7.133   1.987   7.268 -0.6985 -0.0299  1.9641
14481SOL     OW43620   7.933   5.418   3.693  0.5705 -0.4423  0.0004
14481SOL    HW143621   8.011   5.368   3.730  1.0159 -1.0556 -1.6704
14481SOL    HW243622   7.956   5.516   3.687  1.1878 -0.6035 -0.3936
14482SOL     OW43623   6.877   0.365   1.714 -0.0564 -0.0538 -0.0673
14482SOL    HW143624   6.796   0.411   1.677 -0.5035 -0.0580  0.8964
14482SOL    HW243625   6.864   0.266   1.711 -0.5049 -0.0364  0.9928
14483SOL     OW43626   2.198   5.389   0.394  0.2643 -0.3694 -0.1919
14483SOL    HW143627   2.297   5.403   0.390  0.0084  1.4688 -1.3220
14483SOL    HW243628   2.164   5.418   0.484  0.4951  1.1124 -0.5572
14484SOL     OW43629   4.740   2.492   5.883  0.3742  0.7444  0.0542
14484SOL    HW143630   4.777   2.399   5.880  2.2635  1.4757 -0.5125
14484SOL    HW243631   4.733   2.529   5.791  1.5073  1.8391  0.3719
14485SOL     OW43632   3.233   7.605   1.573 -0.2302  0.0792 -0.0457
14485SOL    HW143633   3.187   7.646   1.494 -0.2205  1.6048  0.7076
14485SOL    HW243634   3.331   7.595   1.553 -0.1755  0.7374 -0.1398
14486SOL     OW43635   3.058   0.448   8.136 -0.2784  0.1102  0.1374
14486SOL    HW143636   3.001   0.527   8.153  0.5385  0.0716  3.7767
14486SOL    HW243637   3.002   0.372   8.102 -2.0119  0.7114  1.5518
14487SOL     OW43638   2.033   5.716   1.024 -0.2082  0.2496 -0.1091
14487SOL    HW143639   2.053   5.619   1.036  1.0646  0.6465  1.3737
14487SOL    HW243640   1.984   5.750   1.103 -0.0467  0.9598 -0.3080
14488SOL     OW43641   3.405   6.820   8.848  0.7089 -0.0687 -0.1846
14488SOL    HW143642   3.362   6.823   8.938 -0.0642 -0.2860 -0.5385
14488SOL    HW243643   3.474   6.748   8.846  1.4551  0.5948  0.5383
14489SOL     OW43644   0.147   0.076   4.341 -0.3695 -0.1711 -0.3528
14489SOL    HW143645   0.055   0.039   4.350 -0.3601 -0.2937 -0.7530
14489SOL    HW243646   0.199   0.022   4.275 -0.4186  0.6624 -1.0900
14490SOL     OW43647   1.461   1.414   1.877  0.3631 -0.4722 -0.7241
14490SOL    HW143648   1.405   1.341   1.917  0.9620 -0.4154  0.2558
14490SOL    HW243649   1.558   1.393   1.890  0.5530  0.9477  0.4801
14491SOL     OW43650   5.595   1.616   5.091  0.0382  0.4540 -0.1324
14491SOL    HW143651   5.504   1.655   5.078  0.0045  0.1747 -0.7934
14491SOL    HW243652   5.596   1.559   5.173 -1.0102 -1.3271 -1.2952
14492SOL     OW43653   8.796   6.307   6.921  0.4521  0.2268 -0.1506
14492SOL    HW143654   8.888   6.322   6.885 -0.2406  0.0642 -2.1393
14492SOL    HW243655   8.740   6.389   6.904  0.1503  0.2248  0.7915
14493SOL     OW43656   7.344   8.041   1.067  0.3307  0.0777  0.2351
14493SOL    HW143657   7.391   7.955   1.086 -0.3111 -0.6138 -1.2129
14493SOL    HW243658   7.347   8.099   1.149  1.0892 -1.1514  1.1120
14494SOL     OW43659   0.353   5.967   8.327  0.5416  0.7225 -0.5515
14494SOL    HW143660   0.268   6.014   8.347  0.2391  1.2236 -2.7776
14494SOL    HW243661   0.430   6.028   8.345  0.3926  0.6182  0.4904
14495SOL     OW43662   1.080   1.812   3.416  0.0859  0.6823 -0.2173
14495SOL    HW143663   0.982   1.831   3.410 -0.3373 -0.1581  2.3985
14495SOL    HW243664   1.094   1.713   3.413  0.6988  0.7360  0.5181
14496SOL     OW43665   7.615   0.501   2.862  0.0432  0.4614 -0.3223
14496SOL    HW143666   7.565   0.532   2.781 -0.3499  1.1155  0.1588
14496SOL    HW243667   7.551   0.490   2.938  0.5829  1.0959  0.2409
14497SOL     OW43668   4.028   6.027   6.112  0.5388 -0.3231 -0.5220
14497SOL    HW143669   3.956   6.089   6.144  1.0834  0.4549 -0.7631
14497SOL    HW243670   4.045   6.043   6.014  2.9702  1.5568  0.0889
14498SOL     OW43671   5.844   7.157   4.107 -0.2484  0.0253  0.1620
14498SOL    HW143672   5.809   7.158   4.200 -0.5146  3.0159  0.1331
14498SOL    HW243673   5.935   7.198   4.105  0.3561 -1.3097 -0.7196
14499SOL     OW43674   5.613   8.261   2.210 -0.1885  0.6523  0.4026
14499SOL    HW143675   5.596   8.334   2.276 -0.3768 -0.2955  1.4258
14499SOL    HW243676   5.556   8.276   2.129 -1.9843  0.4138  1.5620
14500SOL     OW43677   4.247   2.819   0.631  0.1873 -0.2367  0.1849
14500SOL    HW143678   4.238   2.907   0.678 -0.7673  0.1155 -0.6013
14500SOL    HW243679   4.188   2.819   0.550 -0.8628 -2.1014  0.8897
14501SOL     OW43680   0.657   5.916   5.818 -0.1253  0.1335  0.1809
14501SOL    HW143681   0.715   5.986   5.776 -2.3071  1.6797 -0.4314
14501SOL    HW243682   0.668   5.830   5.769  0.4842  0.8022 -0.9094
14502SOL     OW43683   0.964   6.634   7.156 -0.2367 -0.0644  0.6479
14502SOL    HW143684   1.018   6.633   7.072  0.8280  0.3002  1.3161
14502SOL    HW243685   1.024   6.621   7.235 -0.4631  4.0158  1.7081
14503SOL     OW43686   7.229   2.669   1.760  0.5755 -0.2276  0.8769
14503SOL    HW143687   7.296   2.677   1.686 -0.4498 -0.5019 -0.1034
14503SOL    HW243688   7.138   2.691   1.725  0.1884  0.5130  2.2819
14504SOL     OW43689   3.409   4.545   7.901  0.1200  0.4429 -0.3424
14504SOL    HW143690   3.480   4.475   7.893 -1.4929 -1.3913  0.7190
14504SOL    HW243691   3.333   4.524   7.840 -0.1815  1.5640 -0.3745
14505SOL     OW43692   3.913   6.927   8.469 -0.3130  0.6623  0.0258
14505SOL    HW143693   4.005   6.959   8.491  0.4021 -1.5141  0.4433
14505SOL    HW243694   3.916   6.877   8.382 -1.3280  1.4107 -0.4593
14506SOL     OW43695   4.545   0.361   0.557  0.0509  0.4285 -0.2227
14506SOL    HW143696   4.600   0.428   0.507  0.4934  0.2615  0.0308
14506SOL    HW243697   4.544   0.385   0.654  0.1344  0.1181 -0.1446
14507SOL     OW43698   1.058   2.113   5.068 -0.2546 -0.5098  0.5723
14507SOL    HW143699   1.134   2.064   5.112 -0.2577 -0.8323  0.2194
14507SOL    HW243700   1.007   2.164   5.137  2.1908  2.3635  0.4759
14508SOL     OW43701   8.105   3.047   1.411 -0.7167 -0.1987 -0.3693
14508SOL    HW143702   8.048   3.070   1.490  1.9046  1.0547  1.3250
14508SOL    HW243703   8.157   2.964   1.431 -2.0038 -1.4473 -1.9654
14509SOL     OW43704   3.333   8.299   0.802  0.2399 -0.1285  0.1445
14509SOL    HW143705   3.370   8.247   0.725 -1.5305 -1.1462 -0.0818
14509SOL    HW243706   3.356   8.395   0.792  0.8052 -0.3797 -1.1704
14510SOL     OW43707   1.170   6.476   8.410  0.1722 -0.0954 -0.0004
14510SOL    HW143708   1.194   6.572   8.424 -1.6314  0.4693 -0.5448
14510SOL    HW243709   1.214   6.443   8.327  0.0214  0.5693 -0.3570
14511SOL     OW43710   3.916   4.029   3.236 -0.7979 -0.0903 -0.4423
14511SOL    HW143711   3.987   3.976   3.282  0.1324  1.4047 -0.0930
14511SOL    HW243712   3.953   4.116   3.206 -2.7409  1.2208  0.7246
14512SOL     OW43713   6.315   8.476   2.762  0.3016 -0.3142  0.5050
14512SOL    HW143714   6.246   8.537   2.800 -0.0571 -0.1140 -0.4330
14512SOL    HW243715   6.370   8.437   2.836 -1.4952 -1.3190  1.3613
14513SOL     OW43716   3.049   2.479   1.413 -0.3168 -0.2323  0.2464
14513SOL    HW143717   2.981   2.521   1.472 -1.3010 -0.4378 -0.7062
14513SOL    HW243718   3.043   2.380   1.421 -0.9218 -0.2845 -0.6702
14514SOL     OW43719   0.969   1.348   1.208  0.3922 -0.0340  0.4078
14514SOL    HW143720   0.883   1.301   1.191 -0.3762  1.4666  0.0300
14514SOL    HW243721   0.957   1.447   1.197  2.4205  0.1483 -0.7928
14515SOL     OW43722   0.106   2.593   6.813  0.3051  0.0471 -0.6231
14515SOL    HW143723   0.123   2.595   6.911 -0.4391  0.7832 -0.4968
14515SOL    HW243724   0.132   2.504   6.776 -1.2475 -0.9627  0.5850
14516SOL     OW43725   7.626   0.906   1.666  0.2824  0.0725 -0.6896
14516SOL    HW143726   7.551   0.841   1.655  1.9185 -1.6604 -2.3833
14516SOL    HW243727   7.658   0.936   1.576  1.9865  0.2915 -0.0571
14517SOL     OW43728   6.373   7.851   7.171 -0.0820 -0.1924 -0.1046
14517SOL    HW143729   6.377   7.808   7.081  1.3084  0.1737 -0.2558
14517SOL    HW243730   6.399   7.948   7.162  1.2147 -0.4284  0.8231
14518SOL     OW43731   2.328   3.087   6.246  0.0979 -0.5934 -0.2972
14518SOL    HW143732   2.384   3.069   6.326  0.0526  2.8333  0.6597
14518SOL    HW243733   2.253   3.148   6.271 -0.2382  0.1492 -2.8263
14519SOL     OW43734   8.046   2.953   5.222 -0.3470 -0.1011 -0.2365
14519SOL    HW143735   8.132   3.004   5.218 -1.1424  1.4196  1.0273
14519SOL    HW243736   7.972   3.009   5.184 -1.2337 -0.3147  1.1195
14520SOL     OW43737   8.512   6.318   0.815  0.0351  0.3211  0.4955
14520SOL    HW143738   8.456   6.397   0.841 -2.3190 -0.5172 -1.6318
14520SOL    HW243739   8.537   6.325   0.719  0.7548 -0.9821  0.5636
14521SOL     OW43740   5.639   7.880   2.385  0.4747  0.2539  0.2945
14521SOL    HW143741   5.652   7.781   2.382 -0.4235  0.0148  2.5068
14521SOL    HW243742   5.724   7.924   2.415  0.5324  0.0616  0.4102
14522SOL     OW43743   0.051   1.754   2.297  0.5718  0.0211  0.3749
14522SOL    HW143744   0.060   1.800   2.386  0.2410 -0.4524  0.6549
14522SOL    HW243745  -0.045   1.734   2.279  0.8504 -2.4473  1.2444
14523SOL     OW43746   5.093   5.752   4.896 -0.0015  0.2658  0.1733
14523SOL    HW143747   5.089   5.847   4.864 -0.0805  0.3300  0.3768
14523SOL    HW243748   5.046   5.693   4.829  1.4774  0.1427 -0.7998
14524SOL     OW43749   7.897   1.400   6.835  0.3636 -0.0482  0.2294
14524SOL    HW143750   7.847   1.347   6.767  1.2297  0.8558 -1.1696
14524SOL    HW243751   7.991   1.414   6.803  0.0532  2.7267  0.2559
14525SOL     OW43752   2.986   4.596   4.807 -0.3254 -0.2624 -0.9300
14525SOL    HW143753   3.064   4.533   4.804 -0.5611 -0.6868  0.7150
14525SOL    HW243754   2.940   4.597   4.718  0.0645 -1.9314 -1.1940
14526SOL     OW43755   5.556   7.762   0.089  0.0488 -0.0732  0.2158
14526SOL    HW143756   5.573   7.694   0.160  0.5634 -0.8605 -0.6511
14526SOL    HW243757   5.643   7.801   0.059 -0.1164 -0.1450 -0.3677
14527SOL     OW43758   0.793   3.651   3.536 -0.2776 -0.6142  0.1380
14527SOL    HW143759   0.820   3.596   3.615 -1.7468  1.1016  1.9294
14527SOL    HW243760   0.865   3.717   3.515  0.4949 -1.6443 -0.5752
14528SOL     OW43761   7.423   6.199   4.671  0.0530 -0.6073  0.0471
14528SOL    HW143762   7.368   6.251   4.737 -2.1182 -0.5189 -1.7460
14528SOL    HW243763   7.509   6.171   4.715 -0.4244  1.1257  2.2688
14529SOL     OW43764   6.903   6.383   8.635 -0.1821  0.3061  0.0027
14529SOL    HW143765   6.859   6.295   8.619 -0.7203  0.6661 -0.5897
14529SOL    HW243766   6.913   6.399   8.733  1.0854 -0.9638  0.0964
14530SOL     OW43767   0.746   1.749   4.283 -0.4271  0.2237 -0.1596
14530SOL    HW143768   0.682   1.673   4.272  0.7803 -0.6677 -1.3385
14530SOL    HW243769   0.840   1.715   4.276  0.2700  1.3216  2.6110
14531SOL     OW43770   2.380   6.974   8.298  0.4456 -0.5204 -0.1815
14531SOL    HW143771   2.373   7.047   8.366 -0.5592 -0.2663 -0.5550
14531SOL    HW243772   2.327   6.997   8.217  1.5368 -0.8715 -1.0331
14532SOL     OW43773   8.821   5.390   5.881 -1.3504 -0.1701 -0.2236
14532SOL    HW143774   8.747   5.338   5.923 -2.5947  1.0800 -0.7879
14532SOL    HW243775   8.839   5.472   5.936 -0.3066 -0.5154 -0.0379
14533SOL     OW43776   0.428   4.900   8.044 -0.4409 -0.0703 -0.3084
14533SOL    HW143777   0.367   4.840   8.096 -0.4753  0.1336 -0.1148
14533SOL    HW243778   0.472   4.847   7.972  1.6200 -1.0356  1.5280
14534SOL     OW43779   0.106   7.536   0.362  0.0636  0.1793 -0.5087
14534SOL    HW143780   0.133   7.458   0.417  1.3441  0.1839 -1.1015
14534SOL    HW243781   0.187   7.584   0.329 -0.6316  2.6070  0.9937
14535SOL     OW43782   1.009   4.227   3.889  0.8033  0.4508  0.6744
14535SOL    HW143783   1.088   4.196   3.942  0.2564  0.7002  1.6494
14535SOL    HW243784   1.029   4.316   3.848  1.8998 -0.5142 -1.0761
14536SOL     OW43785   4.054   4.783   2.178  0.1738 -0.1660  0.5688
14536SOL    HW143786   4.039   4.772   2.080 -0.0715 -2.3419  0.8090
14536SOL    HW243787   4.091   4.875   2.196  2.2324 -0.4168 -1.7925
14537SOL     OW43788   5.862   0.612   1.744 -0.4388 -0.0916 -0.5782
14537SOL    HW143789   5.835   0.665   1.664 -1.2173  0.2067 -0.1260
14537SOL    HW243790   5.785   0.557   1.777 -0.1441 -0.1790 -0.0080
14538SOL     OW43791   8.442   5.879   4.366  0.1684  0.1362  0.6738
14538SOL    HW143792   8.420   5.784   4.389  2.1259 -0.3353  0.8098
14538SOL    HW243793   8.361   5.936   4.376 -1.3886 -1.7105 -0.5628
14539SOL     OW43794   2.607   5.513   3.845 -0.0048  0.8906 -0.5692
14539SOL    HW143795   2.679   5.487   3.781  0.1987 -0.9567  0.3592
14539SOL    HW243796   2.635   5.491   3.938 -1.1414  1.6271 -0.0254
14540SOL     OW43797   4.885   4.046   0.322 -0.0891  0.2062  0.9090
14540SOL    HW143798   4.852   3.973   0.262 -0.4173  0.8090  0.3486
14540SOL    HW243799   4.984   4.037   0.333  0.0861  0.4770 -0.2821
14541SOL     OW43800   2.989   8.374   6.728 -0.2339  0.2411  0.3005
14541SOL    HW143801   3.012   8.404   6.635 -0.6859  0.1645  0.1589
14541SOL    HW243802   2.891   8.356   6.733 -0.0735 -0.5909  0.5579
14542SOL     OW43803   2.512   7.885   0.279  0.5025 -0.2854 -0.6735
14542SOL    HW143804   2.481   7.960   0.221  3.1954  0.2144 -1.6157
14542SOL    HW243805   2.509   7.800   0.227 -2.0213 -0.8393  0.2215
14543SOL     OW43806   0.677   5.566   1.888 -0.4044 -0.0300  0.2016
14543SOL    HW143807   0.610   5.559   1.814  0.8505 -1.1241 -0.8795
14543SOL    HW243808   0.647   5.511   1.966  0.0170 -1.8632 -0.8989
14544SOL     OW43809   2.746   6.869   0.968  0.2290 -0.3581 -0.0258
14544SOL    HW143810   2.742   6.963   0.934  0.5400 -0.6170 -0.8080
14544SOL    HW243811   2.655   6.841   0.999  0.3981  0.6364  1.4780
14545SOL     OW43812   3.659   1.461   2.834  0.0587  0.2682  0.1474
14545SOL    HW143813   3.677   1.383   2.894  0.3192  0.4979  0.3655
14545SOL    HW243814   3.632   1.540   2.889 -1.7612 -0.0876 -0.1594
14546SOL     OW43815   7.392   3.738   1.573 -0.3195  0.3821  0.6733
14546SOL    HW143816   7.378   3.671   1.500 -1.1674 -0.7825  1.8552
14546SOL    HW243817   7.429   3.823   1.534  0.3262 -0.5903 -0.9270
14547SOL     OW43818   2.080   4.510   8.438 -0.0452  0.0096 -0.7315
14547SOL    HW143819   2.140   4.432   8.420  1.2117  0.9125 -0.5861
14547SOL    HW243820   2.097   4.581   8.369  1.0870  1.3974  0.8964
14548SOL     OW43821   7.708   6.658   7.976  0.2048  0.2665 -0.1182
14548SOL    HW143822   7.624   6.660   7.921  0.7394 -1.0097 -1.0292
14548SOL    HW243823   7.784   6.695   7.923  0.4938  0.1272  0.1939
14549SOL     OW43824   1.345   5.356   2.501  0.0181  0.5900 -0.2470
14549SOL    HW143825   1.369   5.337   2.405 -1.0627  0.9885 -0.5995
14549SOL    HW243826   1.286   5.283   2.535  1.8030 -0.5030  0.6954
14550SOL     OW43827   2.616   3.013   2.590  0.0880  0.2524 -0.2120
14550SOL    HW143828   2.587   3.098   2.546 -1.4055  1.3380  2.5803
14550SOL    HW243829   2.545   2.943   2.579  0.9239 -0.3961 -1.7504
14551SOL     OW43830   1.663   7.272   7.263 -0.0285  0.0140 -0.1765
14551SOL    HW143831   1.583   7.272   7.203 -0.0657  0.2645 -0.1272
14551SOL    HW243832   1.742   7.310   7.214  0.0216 -0.0881 -0.1747
14552SOL     OW43833   5.576   4.597   7.803  0.4721  0.2674  0.1330
14552SOL    HW143834   5.604   4.521   7.745  0.0161  0.3843 -0.2389
14552SOL    HW243835   5.494   4.572   7.854  0.0663  0.6734 -0.3220
14553SOL     OW43836   1.237   3.609   0.931 -0.2446  0.0108 -0.1810
14553SOL    HW143837   1.140   3.586   0.941 -0.5709  0.7217 -1.4480
14553SOL    HW243838   1.271   3.650   1.015 -0.8053 -1.0218  0.5703
14554SOL     OW43839   4.490   6.073   8.580  0.4363 -0.5132 -0.0547
14554SOL    HW143840   4.523   6.071   8.485  1.5210 -0.3037  0.3026
14554SOL    HW243841   4.560   6.035   8.640 -0.4941 -1.2073  0.6002
14555SOL     OW43842   0.775   4.011   6.207 -0.3559  0.4531  0.3078
14555SOL    HW143843   0.722   3.970   6.133  0.0323 -0.7463  0.6713
14555SOL    HW243844   0.741   4.103   6.227 -0.6753  0.6569 -1.1275
14556SOL     OW43845   7.650   3.608   8.199 -0.3307  0.0294  0.3151
14556SOL    HW143846   7.597   3.545   8.142 -0.7290  0.5460  0.0996
14556SOL    HW243847   7.588   3.676   8.238  0.1093  0.3523  0.4501
14557SOL     OW43848   7.474   7.125   2.013  0.0065 -0.8365 -0.0238
14557SOL    HW143849   7.390   7.073   1.998  0.2256 -0.4883 -3.1095
14557SOL    HW243850   7.452   7.216   2.048 -0.9324 -0.7473 -0.8051
14558SOL     OW43851   6.125   3.783   2.883  0.0574  0.0501 -0.0621
14558SOL    HW143852   6.187   3.858   2.908  0.2554  0.3448 -1.3560
14558SOL    HW243853   6.045   3.786   2.942  0.7192  0.4015  0.8464
14559SOL     OW43854   1.229   1.741   2.022  0.0051  0.1038  0.3106
14559SOL    HW143855   1.235   1.841   2.025 -1.1809  0.2893 -1.8997
14559SOL    HW243856   1.289   1.706   1.950 -1.2256 -0.5703 -0.4194
14560SOL     OW43857   0.415   8.745   4.967  0.3548 -0.1777  0.1749
14560SOL    HW143858   0.398   8.694   4.883 -0.7905  0.4559  0.0117
14560SOL    HW243859   0.458   8.684   5.034  0.3302 -0.9673 -0.5077
14561SOL     OW43860   6.898   1.946   4.009 -0.2152 -0.4198 -0.0697
14561SOL    HW143861   6.893   2.046   4.005 -0.8230 -0.4731 -0.9169
14561SOL    HW243862   6.851   1.913   4.091  0.2610  0.0071  0.3757
14562SOL     OW43863   5.459   1.269   6.523  0.2249 -0.0143  0.1860
14562SOL    HW143864   5.461   1.321   6.609  2.3610  0.2006  0.0709
14562SOL    HW243865   5.511   1.319   6.453 -0.5204 -0.7294 -0.9139
14563SOL     OW43866   1.071   0.391   8.244  0.0578 -0.0149 -0.5761
14563SOL    HW143867   1.159   0.345   8.254 -0.7846 -1.3547  1.2877
14563SOL    HW243868   1.024   0.356   8.163  0.5975 -0.4003 -0.7307
14564SOL     OW43869   4.782   7.260   5.047 -0.8011  0.8780 -0.0613
14564SOL    HW143870   4.719   7.249   5.124 -0.0716 -0.2646  0.3833
14564SOL    HW243871   4.731   7.250   4.962 -1.2004 -0.2697  0.2940
14565SOL     OW43872   2.128   6.484   4.660  0.7688 -1.0215  0.7195
14565SOL    HW143873   2.153   6.414   4.727 -0.2364 -1.1178  1.0069
14565SOL    HW243874   2.070   6.443   4.590  0.7559 -0.6262  0.4979
14566SOL     OW43875   6.729   8.461   2.103  0.2279 -0.1648 -0.2287
14566SOL    HW143876   6.746   8.428   2.010 -1.7009 -0.8290 -0.3973
14566SOL    HW243877   6.656   8.407   2.145 -0.8107  1.8330  0.6748
14567SOL     OW43878   1.420   1.410   7.470  0.2784  0.1513 -0.1998
14567SOL    HW143879   1.486   1.363   7.412 -1.1133  0.4735 -2.1627
14567SOL    HW243880   1.467   1.450   7.549  2.6999  1.5630 -2.1996
14568SOL     OW43881   5.072   7.783   6.564  0.0738  0.4746 -0.0012
14568SOL    HW143882   5.112   7.702   6.521 -1.8139 -0.0751 -0.8527
14568SOL    HW243883   5.098   7.865   6.513  3.3307  0.7146  1.7906
14569SOL     OW43884   1.764   7.074   5.718 -0.0731  0.1650  0.4112
14569SOL    HW143885   1.683   7.082   5.776  0.1342  2.0670  0.5173
14569SOL    HW243886   1.742   7.021   5.636 -0.8437 -1.0707  1.3792
14570SOL     OW43887   3.602   4.310   5.889  0.4768 -1.2414 -0.0980
14570SOL    HW143888   3.609   4.249   5.968  1.1991 -1.1511 -0.0864
14570SOL    HW243889   3.676   4.290   5.825 -0.1845 -1.4124 -0.8323
14571SOL     OW43890   1.740   4.926   2.212  0.0010 -0.7401 -0.0133
14571SOL    HW143891   1.745   4.840   2.261  0.0926 -0.7123  0.0253
14571SOL    HW243892   1.651   4.933   2.166  0.0928 -0.9698 -0.2286
14572SOL     OW43893   4.739   4.318   8.154 -0.2234 -0.1657  0.6819
14572SOL    HW143894   4.674   4.379   8.109  0.3235  0.9426  1.3671
14572SOL    HW243895   4.832   4.348   8.134  0.0969 -1.5127  0.0278
14573SOL     OW43896   3.103   0.020   7.698  0.1297 -0.2684  0.3791
14573SOL    HW143897   3.123  -0.043   7.623 -0.3692 -0.7743  0.6626
14573SOL    HW243898   3.100  -0.031   7.784 -1.2103 -0.0365  0.4942
14574SOL     OW43899   5.840   8.601   5.630  0.1448 -0.3642 -0.0713
14574SOL    HW143900   5.819   8.543   5.709  0.1775 -2.3203 -1.4326
14574SOL    HW243901   5.937   8.592   5.607  0.0085 -0.2950 -0.6893
14575SOL     OW43902   4.841   1.152   1.815 -0.4099 -0.4969  0.3669
14575SOL    HW143903   4.824   1.062   1.857 -1.1450 -0.7858 -0.5163
14575SOL    HW243904   4.760   1.180   1.764  0.8421 -0.7342 -1.8841
14576SOL     OW43905   0.218   5.920   8.642 -0.2901 -1.0537  0.3630
14576SOL    HW143906   0.315   5.942   8.656 -0.3532 -0.9747  0.6817
14576SOL    HW243907   0.206   5.878   8.552 -0.2900  1.1444 -0.7488
14577SOL     OW43908   5.862   2.683   0.994  0.0263 -0.2166 -0.2864
14577SOL    HW143909   5.950   2.730   0.993  0.4962 -0.9890  1.4698
14577SOL    HW243910   5.868   2.600   0.939  0.5166 -0.4593  0.1266
14578SOL     OW43911   3.480   6.103   1.177 -0.4285 -0.2420 -0.0435
14578SOL    HW143912   3.443   6.015   1.206  2.3399 -1.3654  0.3988
14578SOL    HW243913   3.532   6.091   1.092  0.7595  0.7473  0.5042
14579SOL     OW43914   2.983   8.196   7.206  0.1550 -0.1002 -0.2965
14579SOL    HW143915   3.054   8.156   7.265  1.9391  1.1538 -1.5138
14579SOL    HW243916   2.955   8.128   7.138 -1.8041 -1.5086  1.7636
14580SOL     OW43917   8.714   0.486   6.194 -0.0282  0.5694  0.2044
14580SOL    HW143918   8.661   0.496   6.110 -1.3480 -0.7458  0.8301
14580SOL    HW243919   8.712   0.572   6.245 -1.2336  0.6794  0.0094
14581SOL     OW43920   0.188   3.777   0.525 -0.5113 -0.4327 -0.1357
14581SOL    HW143921   0.281   3.778   0.489 -0.7379  0.6733 -0.7574
14581SOL    HW243922   0.190   3.763   0.624  0.5419  2.6168  0.3745
14582SOL     OW43923   0.760   6.477   7.539  0.0632  0.0864  0.2749
14582SOL    HW143924   0.838   6.448   7.484 -1.5829 -1.2558 -1.4777
14582SOL    HW243925   0.745   6.411   7.613  0.5775  0.3723  0.6454
14583SOL     OW43926   5.472   3.273   3.309  0.3519  0.5942  0.8271
14583SOL    HW143927   5.485   3.345   3.377 -1.1123  0.3540  1.4020
14583SOL    HW243928   5.439   3.190   3.354 -1.0490  0.5533 -0.1889
14584SOL     OW43929   4.110   8.183   3.752  0.7818 -0.0671 -0.1281
14584SOL    HW143930   4.045   8.241   3.703  0.3160 -1.3771 -1.1249
14584SOL    HW243931   4.203   8.211   3.730  0.5924 -0.8583 -2.1322
14585SOL     OW43932   3.071   1.701   1.994 -0.2867  0.7991  0.4832
14585SOL    HW143933   3.127   1.650   1.929 -0.5719  0.2654  0.6466
14585SOL    HW243934   3.120   1.711   2.080 -0.6839 -0.2312  0.8427
14586SOL     OW43935   7.210   6.170   3.521 -0.0973  0.0540  0.4356
14586SOL    HW143936   7.137   6.102   3.518  1.8962 -2.2290  0.3184
14586SOL    HW243937   7.238   6.193   3.428  0.1826 -0.0629  0.4896
14587SOL     OW43938   6.537   5.176   0.331  0.1914 -0.2564  0.0488
14587SOL    HW143939   6.449   5.200   0.372 -0.2188  0.0430 -1.0017
14587SOL    HW243940   6.528   5.171   0.232  1.4740  0.3047 -0.1207
14588SOL     OW43941   6.175   4.759   5.358 -0.8579 -0.3880 -0.3522
14588SOL    HW143942   6.217   4.699   5.426 -0.4342  1.6205  1.2496
14588SOL    HW243943   6.203   4.730   5.266  0.3388 -1.8631  0.4388
14589SOL     OW43944   1.359   3.021   0.514  0.2067  0.3886 -0.2705
14589SOL    HW143945   1.288   2.998   0.447 -0.7357  2.1878  0.0638
14589SOL    HW243946   1.382   2.939   0.567  0.5714 -0.9397 -2.3709
14590SOL     OW43947   4.281   8.655   1.492 -0.1890 -0.4630  0.7402
14590SOL    HW143948   4.345   8.695   1.426 -0.7767 -0.8687 -0.1030
14590SOL    HW243949   4.260   8.721   1.563  0.4334  0.0032  0.5030
14591SOL     OW43950   7.696   1.767   2.423 -0.0381  0.2131 -0.0708
14591SOL    HW143951   7.758   1.689   2.430 -0.5307 -0.4989 -2.5386
14591SOL    HW243952   7.740   1.839   2.369  0.0943  1.3765  1.5020
14592SOL     OW43953   2.034   6.846   2.380 -0.1643 -0.0152  0.0568
14592SOL    HW143954   1.984   6.857   2.294  0.6978  1.9481 -0.2397
14592SOL    HW243955   2.069   6.934   2.411  0.5550 -0.8552  1.8369
14593SOL     OW43956   4.824   0.934   8.446  0.7287 -0.2883  0.0144
14593SOL    HW143957   4.921   0.942   8.469  0.6603 -1.6775  0.9343
14593SOL    HW243958   4.804   0.842   8.413  0.1250  0.6466 -2.4538
14594SOL     OW43959   3.360   0.420   3.531 -0.2094 -0.0633 -0.2753
14594SOL    HW143960   3.311   0.495   3.576 -0.0891  0.1983 -0.5724
14594SOL    HW243961   3.410   0.367   3.600  0.9483  1.0550 -0.2037
14595SOL     OW43962   3.626   0.826   2.702 -0.2944  0.1925 -0.2752
14595SOL    HW143963   3.641   0.783   2.613  3.2664 -1.9636  1.1732
14595SOL    HW243964   3.655   0.922   2.698 -1.4369  0.5170 -1.6859
14596SOL     OW43965   2.785   6.894   5.486 -0.0236 -0.4959 -0.0105
14596SOL    HW143966   2.755   6.824   5.551 -1.4694 -0.5855 -0.7431
14596SOL    HW243967   2.878   6.873   5.455 -0.2255 -1.7778  0.2099
14597SOL     OW43968   0.016   8.019   2.371 -0.0723  0.2132  0.2815
14597SOL    HW143969   0.069   7.952   2.421  0.2077  0.2817  0.0811
14597SOL    HW243970   0.075   8.096   2.346 -0.6115  1.0064  1.3671
14598SOL     OW43971   1.109   0.407   5.198 -0.2181  0.0362 -0.8082
14598SOL    HW143972   1.176   0.479   5.215  0.6768 -0.8603 -0.4375
14598SOL    HW243973   1.089   0.403   5.100 -1.0555  1.4441 -0.7176
14599SOL     OW43974   2.160   2.501   2.160 -0.0836  0.6258  0.0131
14599SOL    HW143975   2.249   2.532   2.195 -0.0140 -1.3421  1.7431
14599SOL    HW243976   2.087   2.553   2.205  0.1222  0.2752  0.7760
14600SOL     OW43977   4.830   0.403   6.687 -0.0303  0.1222 -0.0576
14600SOL    HW143978   4.837   0.338   6.612 -1.0489 -0.0177 -0.0446
14600SOL    HW243979   4.918   0.451   6.698 -0.5521  2.0420 -3.0357
14601SOL     OW43980   2.586   0.063   8.232  0.2264 -0.2172 -0.2947
14601SOL    HW143981   2.633   0.059   8.320 -0.2906 -1.0842 -0.0356
14601SOL    HW243982   2.653   0.064   8.158  0.6618 -0.3452  0.0917
14602SOL     OW43983   0.867   4.624   7.178  0.2332  0.3152 -0.0833
14602SOL    HW143984   0.891   4.671   7.263 -0.4735 -1.0950  0.9323
14602SOL    HW243985   0.903   4.531   7.180  1.9526  0.8440 -2.2278
14603SOL     OW43986   7.800   2.609   7.308  0.4019 -0.1116  0.4962
14603SOL    HW143987   7.848   2.682   7.259  0.3620 -0.2479  0.2543
14603SOL    HW243988   7.783   2.533   7.246 -0.7351  0.2101  0.3952
14604SOL     OW43989   1.256   4.451   4.239 -0.0753  0.5385  0.6449
14604SOL    HW143990   1.249   4.474   4.142 -1.2924  0.7901  0.7632
14604SOL    HW243991   1.176   4.397   4.266  0.9016 -0.6392  1.2256
14605SOL     OW43992   3.982   1.313   2.037 -0.0130 -0.2389  0.0048
14605SOL    HW143993   3.918   1.238   2.021  0.3077 -0.3249 -0.9408
14605SOL    HW243994   3.949   1.396   1.991  1.4863 -0.7793 -2.1773
14606SOL     OW43995   7.793   2.650   3.479 -0.1534 -0.1583 -0.1044
14606SOL    HW143996   7.764   2.557   3.500 -0.1965 -0.0966  0.1054
14606SOL    HW243997   7.718   2.700   3.437  0.4125 -0.7928 -1.9971
14607SOL     OW43998   4.560   0.882   4.159 -0.7702  0.0500  0.0461
14607SOL    HW143999   4.534   0.958   4.098 -1.9122 -1.2997 -1.2366
14607SOL    HW244000   4.533   0.904   4.252 -0.7829  1.3562 -0.2427
14608SOL     OW44001   2.449   4.892   3.355  0.2033  0.1200 -0.2706
14608SOL    HW144002   2.481   4.802   3.382  1.0486  0.0318 -1.4909
14608SOL    HW244003   2.444   4.897   3.255  0.7864  1.6210 -0.2527
14609SOL     OW44004   7.195   3.643   1.776  0.4712 -0.3864  0.0939
14609SOL    HW144005   7.157   3.692   1.855  0.1352 -1.0800  0.3651
14609SOL    HW244006   7.281   3.687   1.749  0.9014 -0.4862  1.2152
14610SOL     OW44007   5.781   7.874   5.474 -0.3233  0.0351 -0.0078
14610SOL    HW144008   5.816   7.784   5.446 -1.0252 -0.1906 -0.1914
14610SOL    HW244009   5.693   7.862   5.520 -0.9487  0.7154 -0.9974
14611SOL     OW44010   3.370   3.857   5.437  0.0763 -0.0586  0.0686
14611SOL    HW144011   3.300   3.926   5.454  0.6727  0.5208  0.2299
14611SOL    HW244012   3.459   3.892   5.468  0.4093 -0.8355 -0.0006
14612SOL     OW44013   5.695   2.467   2.338  0.0294  0.6019 -0.2063
14612SOL    HW144014   5.625   2.440   2.272 -0.1904  1.1630 -0.2112
14612SOL    HW244015   5.666   2.551   2.384 -0.7031 -0.7567  1.9554
14613SOL     OW44016   0.357   3.252   3.103  0.1448 -0.0552 -0.6872
14613SOL    HW144017   0.399   3.255   3.012  0.1293 -0.4238 -0.7074
14613SOL    HW244018   0.424   3.219   3.169 -0.1199 -0.7047 -0.7299
14614SOL     OW44019   1.339   3.125   6.411 -0.0779  0.3676 -0.3338
14614SOL    HW144020   1.270   3.153   6.479 -0.7595  0.2722 -0.9748
14614SOL    HW244021   1.305   3.047   6.359  0.1134  0.9071 -1.2960
14615SOL     OW44022   7.180   8.274   6.981  0.3696  0.3466 -0.0083
14615SOL    HW144023   7.097   8.299   6.932 -0.8547 -1.3350  1.1246
14615SOL    HW244024   7.179   8.177   7.003  3.2701 -0.0309 -1.0796
14616SOL     OW44025   2.933   4.347   2.945 -0.0317 -0.2000 -0.2264
14616SOL    HW144026   3.011   4.346   2.882  1.4924 -2.5910  1.5042
14616SOL    HW244027   2.945   4.421   3.011 -0.1000  0.4797 -0.9709
14617SOL     OW44028   4.906   3.387   7.702 -0.4507  0.2304 -0.2147
14617SOL    HW144029   4.896   3.338   7.789  0.3112 -1.8144 -1.2026
14617SOL    HW244030   4.993   3.436   7.701 -1.1590  1.5419  0.7416
14618SOL     OW44031   7.876   4.267   5.511  0.0814  0.1690 -0.0303
14618SOL    HW144032   7.817   4.348   5.508  0.5944  0.6636  1.8815
14618SOL    HW244033   7.927   4.261   5.426 -2.7827 -0.3778 -1.8445
14619SOL     OW44034   0.594   2.099   1.555 -0.1543 -0.2989  0.4125
14619SOL    HW144035   0.541   2.183   1.567  0.0385 -0.4147  2.5064
14619SOL    HW244036   0.689   2.122   1.534 -0.1432  0.0129  0.7920
14620SOL     OW44037   8.643   6.612   1.655  0.1552  0.0916  0.2897
14620SOL    HW144038   8.720   6.625   1.717  0.5004 -0.3448 -0.0346
14620SOL    HW244039   8.651   6.676   1.579 -1.3980  2.0955  1.7248
14621SOL     OW44040   7.604   2.720   1.260  0.3270  0.2843  0.6990
14621SOL    HW144041   7.625   2.706   1.164  0.2780 -0.5833  0.8046
14621SOL    HW244042   7.639   2.809   1.290 -1.6784  1.6069 -0.6847
14622SOL     OW44043   7.337   8.033   6.604  0.1979 -0.6102 -0.2000
14622SOL    HW144044   7.238   8.033   6.589  0.2567 -1.1679 -0.6098
14622SOL    HW244045   7.361   8.106   6.668 -0.3700  0.1259 -0.8071
14623SOL     OW44046   7.755   0.586   0.146 -0.3637 -0.0777  0.1301
14623SOL    HW144047   7.781   0.494   0.176 -0.1258 -0.3174 -0.7482
14623SOL    HW244048   7.838   0.637   0.123 -0.5572 -0.1721 -0.8267
14624SOL     OW44049   7.977   4.534   1.407 -0.0996 -0.0676  0.0799
14624SOL    HW144050   7.961   4.541   1.308  0.0169  2.3097  0.1713
14624SOL    HW244051   8.075   4.524   1.424 -0.2590 -2.6341 -0.0494
14625SOL     OW44052   8.172   6.145   0.785  0.1557 -0.3520  0.4921
14625SOL    HW144053   8.079   6.111   0.771 -0.4068  1.4368 -0.3722
14625SOL    HW244054   8.179   6.185   0.876 -0.1965  0.3321  0.2223
14626SOL     OW44055   7.246   2.262   4.310  0.4347 -0.1808  0.0123
14626SOL    HW144056   7.202   2.174   4.291  1.1726 -0.6093  0.2551
14626SOL    HW244057   7.204   2.303   4.390 -0.4915  0.0970 -0.6029
14627SOL     OW44058   6.306   8.166   6.881  0.1675  0.0336 -0.0291
14627SOL    HW144059   6.238   8.235   6.907  0.0258 -0.2899  0.4918
14627SOL    HW244060   6.379   8.208   6.828 -2.0079 -0.1493 -3.4534
14628SOL     OW44061   0.742   7.465   0.833  0.0106 -0.5065  0.1102
14628SOL    HW144062   0.823   7.437   0.782 -0.0093 -0.5701  0.1129
14628SOL    HW244063   0.768   7.488   0.927  0.5185  2.3000 -0.6327
14629SOL     OW44064   8.110   8.211   8.013  0.0878 -0.2552  0.3077
14629SOL    HW144065   8.020   8.253   8.000  0.0152 -0.4574  0.1530
14629SOL    HW244066   8.143   8.175   7.925  0.7716  0.7142  0.1629
14630SOL     OW44067   0.294   7.833   1.669 -0.3886 -0.0515 -0.7126
14630SOL    HW144068   0.323   7.863   1.760 -1.6705  0.1126 -0.3302
14630SOL    HW244069   0.303   7.734   1.662  1.4597  0.1063 -1.0837
14631SOL     OW44070   7.734   5.568   7.902 -0.6639  0.1329 -0.3750
14631SOL    HW144071   7.758   5.621   7.984 -1.9554 -1.1022  0.8640
14631SOL    HW244072   7.635   5.568   7.890 -0.6905 -1.7569 -0.4661
14632SOL     OW44073   4.743   6.780   8.636  0.1006  0.5915  0.1318
14632SOL    HW144074   4.815   6.796   8.703  0.4887  1.2329 -0.4206
14632SOL    HW244075   4.681   6.709   8.669  0.5411  0.5836  0.9599
14633SOL     OW44076   2.365   4.982   6.492 -0.0631 -0.0529  0.0276
14633SOL    HW144077   2.381   5.033   6.577  0.8807 -2.0943  1.1582
14633SOL    HW244078   2.283   5.017   6.447  0.0917  1.8885  1.1335
14634SOL     OW44079   8.331   0.129   2.180 -0.0123  0.1591 -0.2267
14634SOL    HW144080   8.295   0.041   2.148  0.6830  0.4761 -1.9293
14634SOL    HW244081   8.396   0.166   2.114  2.7443  0.1163  2.2068
14635SOL     OW44082   8.245   1.774   5.411 -0.3814 -0.2930 -0.7759
14635SOL    HW144083   8.183   1.697   5.423 -1.2168  0.5203  0.3022
14635SOL    HW244084   8.295   1.763   5.325 -0.6561 -1.8964 -0.7671
14636SOL     OW44085   3.790   2.051   6.629 -0.0543 -0.0414  0.2608
14636SOL    HW144086   3.786   1.981   6.700  2.4544  1.7516  2.3883
14636SOL    HW244087   3.787   2.008   6.539  2.8102 -3.1154  1.4093
14637SOL     OW44088   7.128   2.212   6.251 -0.3579 -0.3461  0.4845
14637SOL    HW144089   7.207   2.197   6.311 -1.2558 -1.5507  1.3936
14637SOL    HW244090   7.048   2.166   6.288 -0.8971 -1.4097 -1.8083
14638SOL     OW44091   4.457   1.077   3.170 -0.3295  0.0613 -0.4260
14638SOL    HW144092   4.380   1.041   3.118  0.3444  1.0840 -2.2301
14638SOL    HW244093   4.434   1.077   3.268 -1.7286 -1.7006 -0.7052
14639SOL     OW44094   7.006   8.194   6.385 -0.4075 -0.6913  0.4693
14639SOL    HW144095   6.935   8.166   6.320  2.1530 -1.4371 -2.2524
14639SOL    HW244096   7.045   8.113   6.429  1.0560 -0.6778 -0.7317
14640SOL     OW44097   4.262   6.140   1.555 -0.1164 -0.1226 -0.2233
14640SOL    HW144098   4.319   6.098   1.484  1.6929  0.1538  1.0130
14640SOL    HW244099   4.176   6.089   1.563  0.1723 -0.9038 -1.7377
14641SOL     OW44100   8.512   2.737   8.847 -0.1346  0.1100  0.5497
14641SOL    HW144101   8.439   2.760   8.783 -1.4310  0.6140  2.1407
14641SOL    HW244102   8.530   2.815   8.907  1.2349 -0.2612  0.6715
14642SOL     OW44103   1.724   3.146   4.484  0.0271 -0.5084 -0.7100
14642SOL    HW144104   1.742   3.068   4.543 -1.9449 -1.1905 -0.9104
14642SOL    HW244105   1.803   3.164   4.426  1.0386 -1.4294  0.3344
14643SOL     OW44106   6.287   0.164   3.902 -0.1430  0.3263 -0.0858
14643SOL    HW144107   6.258   0.130   3.812  1.4982 -0.1938 -0.4514
14643SOL    HW244108   6.381   0.136   3.919 -0.5828 -0.0226  2.0384
14644SOL     OW44109   6.881   4.311   4.664  0.2851  0.3374 -0.2074
14644SOL    HW144110   6.928   4.365   4.734  0.2140 -0.0544  0.1467
14644SOL    HW244111   6.786   4.297   4.691  0.2361  0.2491 -0.4213
14645SOL     OW44112   8.482   7.960   6.747  0.3393 -0.3731 -0.2111
14645SOL    HW144113   8.521   7.868   6.751 -0.5811 -0.7347  2.2091
14645SOL    HW244114   8.398   7.963   6.802  0.1842  1.8373 -0.4777
14646SOL     OW44115   5.507   2.038   8.179 -0.3957 -0.0469 -0.2364
14646SOL    HW144116   5.454   2.017   8.261 -0.6552  0.0379 -0.3787
14646SOL    HW244117   5.596   1.993   8.183  0.1595  1.0776  0.7425
14647SOL     OW44118   2.854   1.047   5.310 -0.0345 -0.4731 -0.0550
14647SOL    HW144119   2.846   1.015   5.216  0.0002 -0.5898 -0.0188
14647SOL    HW244120   2.936   1.103   5.320  0.6489 -1.5031  0.1991
14648SOL     OW44121   3.658   0.634   6.916  0.0770 -0.5204 -0.2540
14648SOL    HW144122   3.658   0.718   6.861  1.5396  0.5959  1.3704
14648SOL    HW244123   3.694   0.653   7.007 -1.5210 -2.4840  0.8872
14649SOL     OW44124   4.187   1.151   5.667 -0.0809 -0.2272 -0.5924
14649SOL    HW144125   4.132   1.207   5.729 -1.5230 -1.2674 -0.8939
14649SOL    HW244126   4.211   1.065   5.712 -0.1878 -0.5138 -1.0753
14650SOL     OW44127   6.201   1.714   6.166 -0.5298 -0.0665 -0.5721
14650SOL    HW144128   6.172   1.782   6.099 -1.5207  0.2798  0.1979
14650SOL    HW244129   6.126   1.651   6.185 -0.1569 -0.3572 -0.0252
14651SOL     OW44130   0.622   5.709   5.638 -0.4868  0.4265 -0.1797
14651SOL    HW144131   0.616   5.777   5.566  0.8162  1.0314  0.2485
14651SOL    HW244132   0.665   5.625   5.602  0.5772  0.8861 -0.0337
14652SOL     OW44133   6.033   2.493   0.625 -0.8956 -0.0764 -0.0410
14652SOL    HW144134   5.998   2.443   0.704 -0.9518  0.2526  0.1439
14652SOL    HW244135   6.002   2.448   0.541 -1.9247  0.3178  0.1145
14653SOL     OW44136   2.493   6.946   2.209  0.0755  0.2513 -0.1885
14653SOL    HW144137   2.401   6.940   2.169 -0.4206 -2.2138  1.0761
14653SOL    HW244138   2.558   6.896   2.152  0.0413 -0.3770  0.3066
14654SOL     OW44139   4.180   7.901   0.108 -0.1699  0.3070 -0.8773
14654SOL    HW144140   4.219   7.827   0.163  0.0645  0.7525 -0.4353
14654SOL    HW244141   4.097   7.935   0.151 -0.8817 -0.4000 -1.6354
14655SOL     OW44142   0.971   8.731   0.872 -0.2479 -0.4029  0.0258
14655SOL    HW144143   0.889   8.673   0.870 -0.3372 -0.2674 -0.3076
14655SOL    HW244144   0.961   8.806   0.807  0.3878 -0.7191 -0.4470
14656SOL     OW44145   2.142   3.926   4.488  0.3386 -0.1481  0.8244
14656SOL    HW144146   2.136   3.826   4.486 -0.4575 -0.0969 -0.0797
14656SOL    HW244147   2.222   3.954   4.542  1.3526 -1.2965 -0.0391
14657SOL     OW44148   8.339   7.111   6.185  0.2743  0.8931 -0.3679
14657SOL    HW144149   8.418   7.168   6.208  0.5446  0.4086 -0.0828
14657SOL    HW244150   8.258   7.169   6.175  0.1784  1.1931  1.5960
14658SOL     OW44151   0.697   1.157   3.586  0.3069  0.7025 -0.1506
14658SOL    HW144152   0.730   1.081   3.642 -1.0741 -0.3850 -0.7307
14658SOL    HW244153   0.725   1.143   3.491 -2.2621 -0.6826 -0.8239
14659SOL     OW44154   1.822   6.190   2.363 -0.0727 -0.0240 -0.1479
14659SOL    HW144155   1.887   6.188   2.439  0.4926  0.4322 -0.6075
14659SOL    HW244156   1.740   6.137   2.387  0.7070 -1.0952  0.2193
14660SOL     OW44157   5.102   7.701   3.443 -0.2727  0.1979  0.3144
14660SOL    HW144158   5.119   7.623   3.383 -1.1788  0.6963 -0.6209
14660SOL    HW244159   5.040   7.674   3.517 -0.7502  0.0800 -0.1258
14661SOL     OW44160   7.204   0.122   7.603 -0.3579 -0.0426 -0.0676
14661SOL    HW144161   7.269   0.197   7.592  0.3075 -0.5911  0.1211
14661SOL    HW244162   7.153   0.134   7.688 -0.8811  0.6646 -0.4665
14662SOL     OW44163   0.218   3.932   5.044  0.5971  0.4220 -0.3152
14662SOL    HW144164   0.215   3.897   5.137 -0.9232  1.0409 -0.1064
14662SOL    HW244165   0.273   4.015   5.041 -0.2241  1.0039  0.2676
14663SOL     OW44166   1.549   5.306   1.283  0.3669  0.2232  0.1187
14663SOL    HW144167   1.501   5.219   1.280  1.0644 -0.2382  1.3196
14663SOL    HW244168   1.634   5.296   1.336  0.8505  1.4478 -0.3678
14664SOL     OW44169   5.477   7.519   5.971 -0.3394  0.3860  0.0157
14664SOL    HW144170   5.483   7.474   6.060 -0.2578  1.8926  0.7948
14664SOL    HW244171   5.565   7.561   5.949 -0.2758 -0.2108 -0.9163
14665SOL     OW44172   4.081   4.064   5.956 -0.4807  0.1164  0.1844
14665SOL    HW144173   4.109   4.120   6.034  1.7478 -1.0027  0.2527
14665SOL    HW244174   4.028   3.986   5.989  2.4186 -1.6839  1.0097
14666SOL     OW44175   5.689   0.038   3.243  0.3321 -0.0129 -0.3661
14666SOL    HW144176   5.755   0.106   3.276  0.2413 -0.2317  0.2738
14666SOL    HW244177   5.736  -0.048   3.227  0.4274  0.1650 -1.0810
14667SOL     OW44178   0.324   6.009   7.894 -0.4041 -0.2625 -0.2759
14667SOL    HW144179   0.335   6.098   7.850 -0.0399 -0.7140 -1.1211
14667SOL    HW244180   0.289   5.943   7.827  0.9253 -1.1636 -0.1200
14668SOL     OW44181   1.529   2.571   7.187 -0.2447 -0.3098  0.0169
14668SOL    HW144182   1.486   2.523   7.110  2.1662  0.3070 -1.8274
14668SOL    HW244183   1.518   2.516   7.270 -0.9966 -2.1011 -1.2000
14669SOL     OW44184   1.849   1.834   3.241  0.3064  0.1454 -0.1274
14669SOL    HW144185   1.882   1.924   3.270 -2.1249  0.9862  0.3083
14669SOL    HW244186   1.750   1.838   3.228  0.1031 -2.5423  0.0695
14670SOL     OW44187   0.121   1.188   0.554  0.1852 -0.5398 -0.0638
14670SOL    HW144188   0.189   1.225   0.490  0.8022 -0.3950  0.6595
14670SOL    HW244189   0.143   1.217   0.647 -0.1830 -1.4875  0.3372
14671SOL     OW44190   8.077   2.222   5.252  0.6199  0.3116  0.0782
14671SOL    HW144191   8.043   2.164   5.178  0.2667 -0.7135  1.0157
14671SOL    HW244192   8.161   2.183   5.289  0.6265  0.6432  0.4182
14672SOL     OW44193   1.143   0.112   0.419  0.6054 -0.1692  0.2579
14672SOL    HW144194   1.197   0.151   0.493  0.9830  0.6677 -0.4507
14672SOL    HW244195   1.058   0.164   0.409 -0.3801 -1.4944  1.3865
14673SOL     OW44196   1.950   4.654   7.146 -0.1984 -0.0171  0.5804
14673SOL    HW144197   2.008   4.717   7.095 -0.9608 -0.0124 -0.2953
14673SOL    HW244198   2.000   4.568   7.161  0.5726  0.5192  1.1513
14674SOL     OW44199   6.999   5.025   6.866  0.5246  0.1409  0.4480
14674SOL    HW144200   7.076   5.059   6.921 -0.0271 -0.7270  1.7879
14674SOL    HW244201   6.989   5.083   6.785  0.0075  2.8361  2.3075
14675SOL     OW44202   1.403   8.526   7.615  0.3953  0.1642  0.5198
14675SOL    HW144203   1.500   8.538   7.637  0.4728 -0.8202  0.7708
14675SOL    HW244204   1.369   8.444   7.661 -1.1038  1.6208  2.1778
14676SOL     OW44205   7.536   6.661   4.093  0.2160 -0.1921 -0.3157
14676SOL    HW144206   7.531   6.642   3.995  2.0171  1.5920 -0.8318
14676SOL    HW244207   7.605   6.602   4.135  1.8049  1.1992 -0.8310
14677SOL     OW44208   1.441   7.965   7.356 -0.2722  0.0699 -0.3531
14677SOL    HW144209   1.346   7.935   7.357 -0.5506  0.8716 -1.3432
14677SOL    HW244210   1.481   7.950   7.447 -1.5631  0.4553  0.3139
14678SOL     OW44211   2.939   3.110   6.326  0.1569 -0.3717  0.0734
14678SOL    HW144212   2.889   3.055   6.260 -0.1259 -1.2224  0.9681
14678SOL    HW244213   3.017   3.058   6.360  1.7277  0.9450 -1.3318
14679SOL     OW44214   4.289   3.565   0.057  0.1913 -0.3742 -0.8267
14679SOL    HW144215   4.353   3.641   0.068 -0.5664  0.1728 -0.1080
14679SOL    HW244216   4.234   3.555   0.140  0.7858 -2.1855 -0.6275
14680SOL     OW44217   0.265   2.651   6.271 -0.0867  0.2040 -0.1106
14680SOL    HW144218   0.256   2.748   6.252 -0.7449 -0.1791 -1.9635
14680SOL    HW244219   0.186   2.602   6.234  0.2695 -1.0396  0.7278
14681SOL     OW44220   7.105   2.497   4.053  0.0181 -0.1679 -0.5352
14681SOL    HW144221   7.183   2.439   4.079 -1.8344 -1.8524  1.7648
14681SOL    HW244222   7.121   2.590   4.086  1.0407 -0.4915 -0.0696
14682SOL     OW44223   3.361   4.643   5.030 -0.2824 -0.0999  0.2667
14682SOL    HW144224   3.439   4.646   5.091  1.9842 -1.6931 -2.3261
14682SOL    HW244225   3.328   4.737   5.013  1.5087  0.6759  0.8848
14683SOL     OW44226   3.713   7.322   5.343  0.5175  0.3113  0.2423
14683SOL    HW144227   3.655   7.399   5.315  0.1472  0.3025  0.9573
14683SOL    HW244228   3.778   7.300   5.270  0.3400  1.0256 -0.1341
14684SOL     OW44229   1.329   6.370   7.305 -0.1878  0.6346 -0.8205
14684SOL    HW144230   1.347   6.276   7.277 -2.2195 -0.5579  1.4567
14684SOL    HW244231   1.245   6.402   7.263 -1.2284  0.1836  0.7989
14685SOL     OW44232   3.543   6.537   1.527  0.1160  0.6211  0.0434
14685SOL    HW144233   3.506   6.492   1.608  2.0166 -1.6015 -0.2331
14685SOL    HW244234   3.502   6.498   1.445  1.6657 -0.6100 -0.1943
14686SOL     OW44235   2.732   0.747   8.330 -0.6116 -0.0187  0.0751
14686SOL    HW144236   2.688   0.724   8.416 -1.8002 -0.2338 -0.5685
14686SOL    HW244237   2.752   0.845   8.327  2.7439 -0.4836  2.0481
14687SOL     OW44238   2.407   1.698   1.666  0.3714 -0.0892 -0.5065
14687SOL    HW144239   2.461   1.665   1.744 -1.7580  0.5153  1.3359
14687SOL    HW244240   2.400   1.798   1.670  0.6839  0.0051 -1.8263
14688SOL     OW44241   2.809   3.464   7.854 -0.3399  0.5467  0.0006
14688SOL    HW144242   2.887   3.424   7.806  0.2248 -0.3587  1.5910
14688SOL    HW244243   2.841   3.522   7.929 -1.1915  2.3428 -0.9407
14689SOL     OW44244   1.214   2.092   3.585  0.3470 -0.1092 -0.0919
14689SOL    HW144245   1.144   2.026   3.559 -0.0505 -0.3228  1.4467
14689SOL    HW244246   1.171   2.169   3.633  0.9383  0.7555 -0.9097
14690SOL     OW44247   6.405   7.126   2.980  0.2845 -0.4635 -0.0566
14690SOL    HW144248   6.389   7.217   3.019  3.4124 -1.1078  3.1672
14690SOL    HW244249   6.432   7.135   2.884 -1.1836  1.7706 -0.3440
14691SOL     OW44250   1.693   5.604   6.876  0.0398  0.0716  0.1636
14691SOL    HW144251   1.647   5.517   6.889 -0.3867  0.3828  0.8215
14691SOL    HW244252   1.727   5.637   6.964  0.5188  0.3931 -0.1374
14692SOL     OW44253   4.345   5.385   7.399  0.5592 -0.4124  0.4593
14692SOL    HW144254   4.252   5.421   7.404  1.1353  1.3178 -0.6334
14692SOL    HW244255   4.411   5.459   7.410  1.8058 -1.3506 -0.3306
14693SOL     OW44256   8.648   7.015   5.678 -0.8408 -0.2448 -0.0442
14693SOL    HW144257   8.570   7.024   5.616  1.1388  1.7359 -2.4482
14693SOL    HW244258   8.682   6.921   5.675 -2.4338 -0.8732  0.2697
14694SOL     OW44259   5.517   8.698   2.082  0.5177  0.2595 -0.6000
14694SOL    HW144260   5.438   8.749   2.046  1.3537  2.0099 -0.0328
14694SOL    HW244261   5.550   8.635   2.012  0.3543  1.5634 -1.8986
14695SOL     OW44262   6.374   3.077   3.573  0.6983  0.1385 -0.2513
14695SOL    HW144263   6.454   3.111   3.623  0.7466 -0.7902  0.3327
14695SOL    HW244264   6.291   3.120   3.608  0.6510 -1.0641  1.1911
14696SOL     OW44265   6.539   2.058   5.754  0.8017  0.1109  0.1797
14696SOL    HW144266   6.610   2.100   5.697  1.2884  0.2980  0.9075
14696SOL    HW244267   6.551   1.959   5.755 -0.4157 -0.0926 -1.6335
14697SOL     OW44268   6.919   0.709   2.543 -0.0873 -0.0457  0.0129
14697SOL    HW144269   6.975   0.680   2.620  0.0181  1.9037  0.7290
14697SOL    HW244270   6.823   0.699   2.566 -0.0804  1.3852  0.8238
14698SOL     OW44271   7.001   1.918   4.884 -0.7906  0.1364  0.6884
14698SOL    HW144272   7.017   1.823   4.910 -1.2019  0.0496  0.6251
14698SOL    HW244273   7.081   1.953   4.837 -1.3884 -0.8054 -1.1116
14699SOL     OW44274   0.726   1.088   1.568 -0.5424  0.5433 -0.5532
14699SOL    HW144275   0.813   1.051   1.536  0.3131  1.3722  0.7215
14699SOL    HW244276   0.704   1.171   1.517 -0.5271  0.4140 -0.7738
14700SOL     OW44277   2.603   8.112   1.101 -0.2969 -0.5354 -0.2965
14700SOL    HW144278   2.609   8.162   1.188 -0.2695  3.0288 -2.1730
14700SOL    HW244279   2.687   8.059   1.088  0.3962  0.1372  1.1469
14701SOL     OW44280   1.001   5.274   2.070 -0.4466 -0.0525 -0.1748
14701SOL    HW144281   0.960   5.182   2.070  0.4449 -0.5084  2.1270
14701SOL    HW244282   1.099   5.267   2.088  0.0535  1.2655 -2.0839
14702SOL     OW44283   0.174   3.334   2.926  0.2677 -0.7668 -0.4387
14702SOL    HW144284   0.249   3.364   2.867 -0.5995  2.4745 -0.0632
14702SOL    HW244285   0.211   3.300   3.013  1.4016  2.5331  0.5085
14703SOL     OW44286   2.428   7.409   8.384 -0.4453  0.2342  0.4204
14703SOL    HW144287   2.527   7.419   8.376 -0.4712  0.4312  0.3382
14703SOL    HW244288   2.383   7.488   8.342 -0.6626 -0.4548 -0.7034
14704SOL     OW44289   5.863   5.129   3.097 -0.1704  0.0098 -0.2584
14704SOL    HW144290   5.940   5.194   3.101 -1.3872  1.5470 -0.5781
14704SOL    HW244291   5.898   5.036   3.089  1.6639  0.7594 -1.7738
14705SOL     OW44292   1.702   7.735   7.389  0.2818  0.2538 -0.2177
14705SOL    HW144293   1.673   7.736   7.293  1.2196 -1.5081 -0.5586
14705SOL    HW244294   1.641   7.795   7.442  0.5220  2.2907 -2.0794
14706SOL     OW44295   7.041   0.280   0.750 -0.3440 -0.2883  1.0295
14706SOL    HW144296   7.094   0.289   0.666 -2.4887  3.0925 -0.1645
14706SOL    HW244297   6.988   0.196   0.747  0.6367 -0.8895 -0.3725
14707SOL     OW44298   2.509   0.283   5.668 -0.0647 -0.8026 -0.3208
14707SOL    HW144299   2.428   0.340   5.681  0.9816  0.0092  4.1150
14707SOL    HW244300   2.480   0.194   5.632 -2.7046 -0.0174 -0.3999
14708SOL     OW44301   4.307   8.013   5.469  0.8238 -0.0213 -0.1099
14708SOL    HW144302   4.333   7.965   5.553  1.1154 -0.1743 -0.2855
14708SOL    HW244303   4.216   7.985   5.441  0.2308  0.9150  0.8102
14709SOL     OW44304   6.310   8.045   1.884 -0.4547 -0.0179  0.1217
14709SOL    HW144305   6.227   8.001   1.849 -0.9120  1.3311 -0.5333
14709SOL    HW244306   6.353   7.985   1.952 -0.9386 -1.5584 -0.8809
14710SOL     OW44307   0.627   1.554   1.203 -0.2120 -0.0885  0.1692
14710SOL    HW144308   0.594   1.589   1.291  0.0450 -0.7190  0.5317
14710SOL    HW244309   0.726   1.540   1.208 -0.3647 -1.3178  0.2231
14711SOL     OW44310   2.873   5.080   2.455 -0.3608  0.5990 -0.5454
14711SOL    HW144311   2.853   4.996   2.504  0.5829  0.0011 -1.1544
14711SOL    HW244312   2.858   5.158   2.515  1.0185 -0.1272  0.8064
14712SOL     OW44313   1.692   2.997   8.460  0.3051 -0.4838 -0.4515
14712SOL    HW144314   1.679   3.048   8.545  0.6325  0.4722 -0.9656
14712SOL    HW244315   1.789   2.975   8.449  0.1175 -1.5580 -0.0495
14713SOL     OW44316   8.410   4.700   3.705  0.2774  0.0243  0.0392
14713SOL    HW144317   8.489   4.744   3.662 -0.6888  0.6042 -1.2150
14713SOL    HW244318   8.431   4.604   3.722  0.7908 -0.2015 -1.6130
14714SOL     OW44319   6.034   1.778   8.349 -0.1092 -0.0378 -0.1747
14714SOL    HW144320   5.951   1.824   8.381 -0.1220 -0.0851 -0.1403
14714SOL    HW244321   6.017   1.680   8.341 -0.0788 -0.0379 -0.2401
14715SOL     OW44322   0.982   6.878   6.182  0.7350  0.0804  0.2988
14715SOL    HW144323   0.970   6.795   6.236  2.3245  0.5775  1.5315
14715SOL    HW244324   1.038   6.943   6.234  0.5001  1.4671 -1.0996
14716SOL     OW44325   2.452   2.695   4.671  0.6865  0.1246  0.0457
14716SOL    HW144326   2.399   2.712   4.589  2.1647 -1.3483 -1.2810
14716SOL    HW244327   2.505   2.776   4.695  1.8219 -0.0548 -1.7035
14717SOL     OW44328   1.289   5.932   0.411 -0.4845  0.3500  0.4017
14717SOL    HW144329   1.213   5.958   0.469 -1.3115 -1.8308  0.3812
14717SOL    HW244330   1.255   5.907   0.320  0.1211 -1.2150  0.5672
14718SOL     OW44331   5.435   6.362   0.374  0.2358 -0.0203 -0.3176
14718SOL    HW144332   5.484   6.443   0.343 -1.3998  1.0042 -0.3074
14718SOL    HW244333   5.338   6.383   0.386 -0.1421 -1.8403  0.2035
14719SOL     OW44334   0.276   2.731   5.379 -0.4467  0.0426 -0.1035
14719SOL    HW144335   0.246   2.690   5.465  0.8215  1.3575  1.0027
14719SOL    HW244336   0.376   2.740   5.379 -0.3644 -0.4027 -1.9415
14720SOL     OW44337   8.432   1.584   7.302 -0.4745 -0.0996  0.3730
14720SOL    HW144338   8.449   1.660   7.239 -1.0160 -0.9894 -0.8900
14720SOL    HW244339   8.468   1.499   7.262 -2.5521 -1.0249  0.3108
14721SOL     OW44340   1.046   4.051   8.584 -0.2005 -0.1440 -0.4556
14721SOL    HW144341   1.010   3.983   8.520  0.1622  0.1493 -0.9753
14721SOL    HW244342   1.145   4.038   8.595 -0.6383 -2.1627  2.4071
14722SOL     OW44343   8.588   6.537   5.931  0.4017 -0.4081 -0.1595
14722SOL    HW144344   8.599   6.579   6.021 -1.9683 -0.0849  0.0242
14722SOL    HW244345   8.638   6.450   5.929 -1.4568 -1.6746  2.3761
14723SOL     OW44346   5.252   5.279   7.128 -0.1716 -0.0417 -0.0199
14723SOL    HW144347   5.289   5.197   7.172 -0.1195  0.9135  1.7894
14723SOL    HW244348   5.156   5.289   7.152 -0.3851  0.0126 -0.8792
14724SOL     OW44349   4.048   4.076   1.700  0.3054 -0.7115  0.1542
14724SOL    HW144350   4.103   4.019   1.762  1.8461 -1.2244 -1.5973
14724SOL    HW244351   4.014   4.020   1.625 -0.3656  0.1726 -0.2226
14725SOL     OW44352   1.211   4.024   2.284  0.5274  0.2333 -0.1675
14725SOL    HW144353   1.266   4.071   2.215 -0.4971 -0.9545 -1.8657
14725SOL    HW244354   1.114   4.032   2.261  0.0088  1.0828  1.9948
14726SOL     OW44355   2.585   8.534   5.579 -0.4059  0.0604 -0.3730
14726SOL    HW144356   2.651   8.473   5.623 -3.4314 -0.5273  3.9617
14726SOL    HW244357   2.607   8.629   5.601 -0.4005 -0.0554  0.1257
14727SOL     OW44358   6.337   1.572   0.486 -0.4004  0.1192  0.6625
14727SOL    HW144359   6.427   1.576   0.529 -0.2919  1.4526  0.3464
14727SOL    HW244360   6.321   1.480   0.450  0.0388 -0.6780  2.3789
14728SOL     OW44361   0.231   2.151   7.690  0.1988 -0.1188  0.2197
14728SOL    HW144362   0.141   2.150   7.733  0.6691  1.0866  1.2743
14728SOL    HW244363   0.234   2.080   7.620 -1.0113 -1.3322  1.3132
14729SOL     OW44364   6.098   5.528   3.376 -0.0410  0.0667  0.1447
14729SOL    HW144365   6.018   5.584   3.357 -1.2973 -1.8303 -0.4063
14729SOL    HW244366   6.116   5.528   3.475  0.3972  1.8822  0.1140
14730SOL     OW44367   6.234   1.260   6.223 -0.1197  0.3184  0.4582
14730SOL    HW144368   6.256   1.170   6.187  0.8860  0.4557  0.7147
14730SOL    HW244369   6.155   1.252   6.285 -0.0978 -0.3683  0.4083
14731SOL     OW44370   2.693   6.159   5.821 -0.1358 -0.1924 -0.5905
14731SOL    HW144371   2.621   6.156   5.751 -0.5445  0.4508 -0.2106
14731SOL    HW244372   2.714   6.066   5.851 -0.9322 -0.3829 -0.5930
14732SOL     OW44373   1.548   6.758   0.493 -0.6863 -0.2294  0.0164
14732SOL    HW144374   1.496   6.705   0.426 -2.6100  1.1052  0.3706
14732SOL    HW244375   1.485   6.809   0.552  1.0267  0.9433  0.9364
14733SOL     OW44376   2.099   1.645   4.180  0.1792  0.5561 -1.1594
14733SOL    HW144377   2.099   1.602   4.089 -0.0368  3.3375 -2.6062
14733SOL    HW244378   2.182   1.619   4.229  0.0336 -1.4689 -1.8755
14734SOL     OW44379   1.636   7.214   0.648 -0.3151  0.2513 -0.6446
14734SOL    HW144380   1.673   7.131   0.691 -0.2892  0.0240 -1.1050
14734SOL    HW244381   1.617   7.196   0.552  0.7319  1.1138 -1.0213
14735SOL     OW44382   1.672   1.199   2.631  0.1470  0.0005  0.1932
14735SOL    HW144383   1.651   1.186   2.728  0.0825  0.0879  0.1921
14735SOL    HW244384   1.771   1.208   2.619  0.2513 -1.2193  0.0990
14736SOL     OW44385   1.893   4.547   7.652  0.4750  0.6622 -0.7548
14736SOL    HW144386   1.889   4.614   7.725 -0.6844 -0.7772  0.5560
14736SOL    HW244387   1.985   4.547   7.612  1.4492  0.7916  1.3676
14737SOL     OW44388   1.371   0.623   2.087 -0.2424 -0.3189 -0.2229
14737SOL    HW144389   1.393   0.690   2.157  2.4365 -1.6519  0.3472
14737SOL    HW244390   1.291   0.569   2.116  0.9571 -1.0086  1.9970
14738SOL     OW44391   4.692   4.750   7.456 -0.0316  0.3249 -0.6541
14738SOL    HW144392   4.601   4.747   7.414 -1.1434 -0.3159  1.6184
14738SOL    HW244393   4.715   4.845   7.478 -0.2121  0.4686 -1.0683
14739SOL     OW44394   6.267   2.492   5.141  0.2235 -0.7097 -0.2983
14739SOL    HW144395   6.354   2.508   5.188 -0.3073  0.0322  0.4647
14739SOL    HW244396   6.213   2.576   5.141  0.4394 -0.4915 -2.8262
14740SOL     OW44397   4.749   5.868   7.745  0.8158 -0.1590 -0.6879
14740SOL    HW144398   4.756   5.877   7.844  0.7046  0.3710 -0.7245
14740SOL    HW244399   4.710   5.779   7.722  0.3984 -0.0979 -0.2367
14741SOL     OW44400   7.031   0.605   0.905 -0.7762  0.5267 -0.3291
14741SOL    HW144401   7.045   0.509   0.881  0.4531  0.6958 -0.3548
14741SOL    HW244402   6.970   0.647   0.838 -1.8746 -0.3942  0.0676
14742SOL     OW44403   0.402   0.674   6.508 -0.1237  0.4893  0.1664
14742SOL    HW144404   0.472   0.723   6.559 -0.0143  0.5555 -0.0505
14742SOL    HW244405   0.434   0.655   6.416  0.0449 -0.4437  0.4041
14743SOL     OW44406   0.551   3.750   3.191  0.0768  0.6642 -0.9226
14743SOL    HW144407   0.496   3.682   3.240  1.8919 -0.5662 -0.4980
14743SOL    HW244408   0.500   3.782   3.111 -0.8617 -1.2107 -1.1415
14744SOL     OW44409   1.066   6.735   0.339  0.0650 -0.3101 -0.9852
14744SOL    HW144410   0.986   6.707   0.392  0.8354 -0.1556  0.2943
14744SOL    HW244411   1.135   6.662   0.342  1.0653  0.6475  0.2546
14745SOL     OW44412   7.298   4.510   6.615  0.2987 -0.3752  0.0918
14745SOL    HW144413   7.214   4.496   6.565  0.4294  1.0135 -0.5667
14745SOL    HW244414   7.363   4.438   6.593 -0.6565 -1.3887  0.5152
14746SOL     OW44415   5.590   0.903   5.112  0.1323  0.4858 -0.4741
14746SOL    HW144416   5.632   0.873   5.198 -2.0104 -0.9271  0.1655
14746SOL    HW244417   5.623   0.846   5.037 -0.4862 -0.4870 -0.0170
14747SOL     OW44418   3.710   2.351   5.343  0.4728  0.0470 -0.2078
14747SOL    HW144419   3.719   2.425   5.276 -0.2109  0.9182  0.6319
14747SOL    HW244420   3.740   2.384   5.433  0.2893 -0.7360  0.1467
14748SOL     OW44421   0.716   4.878   8.196  0.0730  0.0770 -0.0159
14748SOL    HW144422   0.659   4.927   8.261  0.9796 -0.8262  1.5169
14748SOL    HW244423   0.669   4.872   8.108 -0.7492  2.2331  0.2058
14749SOL     OW44424   8.346   7.217   4.745 -0.0603 -0.0645  0.0670
14749SOL    HW144425   8.344   7.306   4.699 -0.7134 -0.1514 -0.0910
14749SOL    HW244426   8.356   7.145   4.676  1.0967 -0.0913  0.2434
14750SOL     OW44427   7.292   6.410   6.519 -0.1593  0.0414  1.0651
14750SOL    HW144428   7.215   6.367   6.472 -0.1393  0.0342  1.0386
14750SOL    HW244429   7.306   6.366   6.607 -0.0992 -0.0481  1.0110
14751SOL     OW44430   8.457   5.142   6.640 -0.1319 -0.3913 -0.6090
14751SOL    HW144431   8.549   5.110   6.662 -0.3459 -0.8715 -0.3965
14751SOL    HW244432   8.454   5.174   6.546  1.2471  3.2685  0.3988
14752SOL     OW44433   7.348   3.725   0.178  0.3909 -0.5452 -0.0955
14752SOL    HW144434   7.402   3.653   0.222  1.6851  1.0957  1.0908
14752SOL    HW244435   7.300   3.778   0.247 -1.1109 -0.6615 -1.0106
14753SOL     OW44436   2.546   3.060   4.366  0.6921  0.0213 -0.2859
14753SOL    HW144437   2.626   3.062   4.426 -0.6650 -0.0809  1.6267
14753SOL    HW244438   2.550   2.979   4.308  2.2565  0.3354 -0.6530
14754SOL     OW44439   0.845   4.552   4.788  0.0809 -0.0464  0.0683
14754SOL    HW144440   0.906   4.613   4.738  0.5907  1.1592  2.0824
14754SOL    HW244441   0.897   4.475   4.825 -0.2669 -0.8447 -1.0321
14755SOL     OW44442   2.121   5.184   5.147  0.8436 -0.1101  0.0725
14755SOL    HW144443   2.062   5.219   5.075 -0.4707  0.4907  1.3978
14755SOL    HW244444   2.077   5.197   5.236  1.4394 -2.7934  0.8483
14756SOL     OW44445   3.443   6.429   1.307 -0.0568 -0.7258  0.5531
14756SOL    HW144446   3.491   6.398   1.225 -0.3907 -2.8809  1.1285
14756SOL    HW244447   3.351   6.461   1.282  0.1072 -0.6703  0.0120
14757SOL     OW44448   4.415   8.796   2.274 -0.0169  0.0936 -0.3904
14757SOL    HW144449   4.365   8.713   2.250  0.8231 -0.4367 -0.3323
14757SOL    HW244450   4.353   8.860   2.320 -0.5508 -0.7008  0.0181
14758SOL     OW44451   7.480   2.725   2.701 -0.2923 -0.2279  0.5221
14758SOL    HW144452   7.450   2.791   2.633  0.2535 -1.3475 -0.8501
14758SOL    HW244453   7.508   2.640   2.656  0.0831 -1.0127  2.1426
14759SOL     OW44454   1.866   0.434   2.739 -0.5057  0.5357 -0.2554
14759SOL    HW144455   1.903   0.440   2.647 -0.8249  1.9935 -0.3070
14759SOL    HW244456   1.878   0.521   2.786  1.7123 -0.8277  1.9145
14760SOL     OW44457   6.957   7.264   5.861 -0.4927  0.6017 -0.0288
14760SOL    HW144458   6.970   7.184   5.920  2.5289  1.6885  0.9445
14760SOL    HW244459   6.950   7.346   5.916 -2.6369  1.1825 -1.0654
14761SOL     OW44460   7.629   2.441   3.568  0.2745 -0.1412 -0.3114
14761SOL    HW144461   7.576   2.390   3.636  0.8864  0.7057  0.8388
14761SOL    HW244462   7.626   2.393   3.480 -1.0514 -0.9434  0.1398
14762SOL     OW44463   7.137   6.497   0.501 -0.0576 -0.3318  0.7414
14762SOL    HW144464   7.041   6.520   0.520 -1.0720 -2.0226 -1.8783
14762SOL    HW244465   7.186   6.581   0.477 -1.0290  0.4788  1.4668
14763SOL     OW44466   4.588   4.371   3.699 -0.2038 -0.1203  0.5702
14763SOL    HW144467   4.580   4.389   3.601 -0.9377 -0.5600  0.5390
14763SOL    HW244468   4.684   4.375   3.727  0.1082 -0.9608 -0.3479
14764SOL     OW44469   8.851   5.257   0.963  0.1845  0.1035 -0.2678
14764SOL    HW144470   8.926   5.315   0.933  0.0083  2.7956  3.6958
14764SOL    HW244471   8.877   5.209   1.047 -1.4070 -1.6976 -0.7168
14765SOL     OW44472   3.812   1.653   7.754 -0.2964 -0.0966 -0.1670
14765SOL    HW144473   3.807   1.657   7.654  0.5448 -1.5356 -0.2832
14765SOL    HW244474   3.784   1.742   7.792  0.3817  0.8138 -1.7032
14766SOL     OW44475   2.715   3.110   5.523  0.0212 -0.7112 -0.8505
14766SOL    HW144476   2.669   3.198   5.539  1.8335  0.2510 -0.6875
14766SOL    HW244477   2.698   3.049   5.601 -0.9893 -0.3993 -0.8170
14767SOL     OW44478   3.403   5.755   4.221 -0.1741 -0.3012  0.1790
14767SOL    HW144479   3.305   5.761   4.203 -0.2798 -1.3332  0.3394
14767SOL    HW244480   3.418   5.716   4.312  0.3784 -0.1507  0.1560
14768SOL     OW44481   0.530   3.105   0.478 -0.0753 -0.2220 -0.6616
14768SOL    HW144482   0.527   3.023   0.420  2.0438 -0.2070 -0.8438
14768SOL    HW244483   0.484   3.180   0.430 -1.9258 -1.2234 -0.5497
14769SOL     OW44484   5.357   1.178   6.273 -0.0880 -0.3076 -0.3540
14769SOL    HW144485   5.357   1.215   6.366 -1.3956  0.5334 -0.6710
14769SOL    HW244486   5.301   1.095   6.271 -0.6983  0.1043 -0.5446
14770SOL     OW44487   5.098   3.836   3.724  0.2217  0.0478 -0.1806
14770SOL    HW144488   5.088   3.831   3.823  0.0829  0.9904 -0.1395
14770SOL    HW244489   5.068   3.926   3.692 -1.2314 -0.7741 -1.2578
14771SOL     OW44490   1.684   0.692   6.451 -0.4197 -0.1441 -0.7169
14771SOL    HW144491   1.731   0.740   6.376  0.2959  0.7882  0.2773
14771SOL    HW244492   1.586   0.707   6.444 -0.2007  1.8862 -0.2245
14772SOL     OW44493   1.425   0.562   7.598  0.2634 -0.2199  0.4754
14772SOL    HW144494   1.473   0.474   7.603 -0.1665 -0.4404  0.8573
14772SOL    HW244495   1.479   0.632   7.644  0.4064 -0.3802  0.5569
14773SOL     OW44496   5.570   7.399   0.758  0.1927 -0.2118 -0.3478
14773SOL    HW144497   5.533   7.458   0.687  0.7307  0.2294 -0.2735
14773SOL    HW244498   5.660   7.434   0.786  0.8068 -1.4335 -0.7472
14774SOL     OW44499   0.924   7.820   7.926 -0.0242 -0.0326 -0.2095
14774SOL    HW144500   0.878   7.798   8.012  1.2397 -0.7999  0.2921
14774SOL    HW244501   0.942   7.918   7.922 -2.2659  0.3993 -0.7208
14775SOL     OW44502   1.763   5.709   2.185  0.0617  0.2406 -0.0110
14775SOL    HW144503   1.804   5.793   2.149 -1.1305  0.7144 -0.3210
14775SOL    HW244504   1.747   5.720   2.283 -0.1118  0.4015 -0.0544
14776SOL     OW44505   6.022   6.626   8.479 -0.1584 -0.3291 -0.2714
14776SOL    HW144506   6.018   6.541   8.530 -0.0830 -0.2859 -0.1935
14776SOL    HW244507   6.077   6.613   8.396 -1.0600 -0.6614 -0.8411
14777SOL     OW44508   4.098   3.383   6.300  0.0282 -0.1350  0.2377
14777SOL    HW144509   4.047   3.307   6.261  0.0353 -0.8505  1.5343
14777SOL    HW244510   4.154   3.349   6.376  0.4990  1.0654  0.4465
14778SOL     OW44511   0.646   6.524   2.173 -0.0705 -0.1623 -0.1260
14778SOL    HW144512   0.742   6.513   2.199  0.5266  1.1366 -1.6020
14778SOL    HW244513   0.635   6.500   2.077 -0.8275  1.3801 -0.4583
14779SOL     OW44514   7.298   2.081   3.866  0.6799  0.4150  0.4578
14779SOL    HW144515   7.276   2.171   3.901 -0.8138  0.2690 -0.0434
14779SOL    HW244516   7.242   2.012   3.912 -0.5828  0.1162 -1.4164
14780SOL     OW44517   0.283   6.383   5.232 -0.0202 -0.6085  0.3343
14780SOL    HW144518   0.248   6.299   5.190 -0.3547 -1.5403  2.3176
14780SOL    HW244519   0.236   6.462   5.194  0.0524 -1.3316 -1.3349
14781SOL     OW44520   0.808   3.695   2.645  0.1352  0.2076  0.2605
14781SOL    HW144521   0.815   3.691   2.745  2.2210  0.0478  0.1532
14781SOL    HW244522   0.814   3.603   2.607  0.4636  0.3546 -0.0545
14782SOL     OW44523   3.524   0.705   1.403  0.5236  0.6038  0.1787
14782SOL    HW144524   3.433   0.730   1.370  0.9184  0.7019 -0.8581
14782SOL    HW244525   3.585   0.785   1.399  0.4647  0.7601  1.6377
14783SOL     OW44526   6.015   6.774   1.603  0.2932 -0.0788 -0.6841
14783SOL    HW144527   6.071   6.691   1.605 -1.0221 -1.0195 -0.9762
14783SOL    HW244528   5.923   6.752   1.637  0.0967  1.4130 -0.1976
14784SOL     OW44529   5.770   2.407   3.018  0.1285  0.1498  0.8242
14784SOL    HW144530   5.737   2.500   3.001  1.8428  0.6271 -0.0382
14784SOL    HW244531   5.854   2.392   2.967  0.3130 -1.6187  1.6081
14785SOL     OW44532   5.381   7.019   8.470  0.5136 -0.3035 -0.0508
14785SOL    HW144533   5.415   6.970   8.551 -2.1858 -0.5288  1.0856
14785SOL    HW244534   5.314   6.961   8.423 -0.6900  1.2036 -0.2806
14786SOL     OW44535   6.125   6.187   0.432  0.0625 -0.0073  0.2846
14786SOL    HW144536   6.196   6.258   0.426 -0.5431  0.5115 -1.3489
14786SOL    HW244537   6.060   6.198   0.357 -1.6742 -0.5871  1.6293
14787SOL     OW44538   0.786   3.689   4.434  0.5646  0.0967 -0.3811
14787SOL    HW144539   0.877   3.665   4.402  0.8180 -1.0240  1.0619
14787SOL    HW244540   0.793   3.752   4.511  0.0979  0.4717 -0.6433
14788SOL     OW44541   5.278   2.825   3.082  0.4022  0.0359  0.6188
14788SOL    HW144542   5.245   2.795   2.992 -0.3707  0.2414  0.8282
14788SOL    HW244543   5.248   2.918   3.100  0.9697  0.1740  0.8936
14789SOL     OW44544   7.047   6.116   3.275 -0.5894  1.0800 -0.1111
14789SOL    HW144545   6.971   6.071   3.322 -0.4229  0.3096 -0.5583
14789SOL    HW244546   7.067   6.066   3.190  1.6396  0.1477  0.8825
14790SOL     OW44547   6.217   4.511   0.732  0.5708  0.2735 -0.1921
14790SOL    HW144548   6.311   4.546   0.724  0.7165  0.3427  1.4691
14790SOL    HW244549   6.214   4.443   0.805 -0.5931 -0.0523 -0.5382
14791SOL     OW44550   6.666   4.566   0.459 -0.3800 -0.1315  0.3106
14791SOL    HW144551   6.661   4.639   0.390 -2.3052 -0.1790  0.3503
14791SOL    HW244552   6.732   4.592   0.530 -0.3409  1.1418 -0.1683
14792SOL     OW44553   7.784   1.487   5.486  0.2730  0.2421 -0.1956
14792SOL    HW144554   7.754   1.492   5.391 -0.6413  0.7957  0.1011
14792SOL    HW244555   7.773   1.393   5.519 -0.4343  0.2670 -0.3311
14793SOL     OW44556   0.001   8.243   6.278  0.4626  0.3264 -0.7823
14793SOL    HW144557  -0.047   8.174   6.332 -0.6721  1.8629  0.2334
14793SOL    HW244558   0.096   8.213   6.263  0.4999 -0.6391  1.1081
14794SOL     OW44559   2.654   4.665   5.899 -0.3748 -0.1051 -0.2736
14794SOL    HW144560   2.564   4.631   5.925 -0.8104  0.3636 -1.1612
14794SOL    HW244561   2.676   4.746   5.953  0.3597 -1.2996  1.3317
14795SOL     OW44562   8.119   2.479   6.875 -0.6113 -0.2273 -0.0715
14795SOL    HW144563   8.061   2.560   6.865 -0.2236  0.6847  3.6626
14795SOL    HW244564   8.062   2.400   6.900 -0.7397 -0.6331 -1.5559
14796SOL     OW44565   4.516   0.617   1.166 -0.2751 -0.3958 -0.1829
14796SOL    HW144566   4.607   0.644   1.198 -0.7127  0.0489  0.7060
14796SOL    HW244567   4.521   0.526   1.124  0.3737 -0.8802  0.9085
14797SOL     OW44568   2.318   8.117   1.872  0.3586 -0.1046 -0.2155
14797SOL    HW144569   2.325   8.019   1.850 -4.8652 -1.0989  1.1939
14797SOL    HW244570   2.315   8.129   1.971  1.1030  1.5721 -0.3649
14798SOL     OW44571   7.351   6.635   0.800  0.5564 -0.4888  0.6073
14798SOL    HW144572   7.342   6.735   0.791  0.4345 -0.5131  0.4365
14798SOL    HW244573   7.260   6.594   0.805  0.6211 -0.5213  1.5343
14799SOL     OW44574   3.960   6.149   1.919  0.4367  0.6756  0.3444
14799SOL    HW144575   3.973   6.242   1.952 -0.3153  0.4086  1.4813
14799SOL    HW244576   3.890   6.148   1.848  2.4530  1.3355 -1.7937
14800SOL     OW44577   2.603   5.405   3.435  0.3701  0.4005  0.3262
14800SOL    HW144578   2.561   5.315   3.426  0.7608 -0.0064  2.1384
14800SOL    HW244579   2.535   5.476   3.419  0.5069 -0.0773 -3.3582
14801SOL     OW44580   3.718   7.826   7.225 -0.3156  0.2098  0.0391
14801SOL    HW144581   3.730   7.768   7.306  1.5943  0.3572 -0.0952
14801SOL    HW244582   3.641   7.889   7.241 -0.0234  0.1960  1.7150
14802SOL     OW44583   1.268   2.215   8.324 -0.7019 -0.2479  0.5575
14802SOL    HW144584   1.207   2.229   8.402 -1.1746  1.8258 -0.1038
14802SOL    HW244585   1.356   2.260   8.342 -1.1679  1.1643 -0.4392
14803SOL     OW44586   8.435   3.723   1.676 -0.0463 -0.0690  0.0114
14803SOL    HW144587   8.501   3.768   1.615 -0.7935  0.2047 -0.6061
14803SOL    HW244588   8.428   3.775   1.761 -1.8977  1.8164 -1.2076
14804SOL     OW44589   0.196   0.497   5.655 -0.0398  0.0012  0.5793
14804SOL    HW144590   0.128   0.424   5.651 -1.1209  0.9929  0.1483
14804SOL    HW244591   0.150   0.584   5.671  1.2734  0.5353  1.6570
14805SOL     OW44592   7.088   5.247   5.105 -0.2208  0.1591  0.1703
14805SOL    HW144593   7.054   5.259   5.198  0.2056 -1.6832  0.5924
14805SOL    HW244594   7.185   5.270   5.103  0.2662 -1.6730  0.6769
14806SOL     OW44595   7.762   1.706   5.932 -0.1499  0.7342 -0.1163
14806SOL    HW144596   7.704   1.777   5.892  0.7812  1.6890  0.1835
14806SOL    HW244597   7.706   1.626   5.955 -1.1304  1.1686 -0.9091
14807SOL     OW44598   7.013   7.469   6.809  0.1346  0.3279  0.3159
14807SOL    HW144599   6.974   7.377   6.803  0.6067  0.1851 -1.0613
14807SOL    HW244600   7.020   7.508   6.717 -1.9870  2.5936  1.0037
14808SOL     OW44601   3.134   7.880   3.197 -0.3131  0.3702  0.1249
14808SOL    HW144602   3.074   7.957   3.216  1.1613  1.9100 -1.1558
14808SOL    HW244603   3.226   7.899   3.231  0.4000 -0.2301 -1.3634
14809SOL     OW44604   2.273   8.703   4.513 -0.2032 -0.2510 -0.0242
14809SOL    HW144605   2.255   8.774   4.582 -1.4007  0.4000 -0.9652
14809SOL    HW244606   2.300   8.747   4.427 -0.4412 -0.9540 -0.4646
14810SOL     OW44607   4.587   3.499   3.904  0.0083 -0.3328  0.5136
14810SOL    HW144608   4.660   3.500   3.972 -0.1133  2.6132  0.7262
14810SOL    HW244609   4.624   3.526   3.815 -0.4038 -1.2094  0.0580
14811SOL     OW44610   6.457   1.356   4.039 -0.0927  0.4878 -0.4455
14811SOL    HW144611   6.516   1.356   4.120 -0.0387  0.5174 -0.4844
14811SOL    HW244612   6.511   1.335   3.958 -0.3021 -0.4093 -0.3634
14812SOL     OW44613   6.940   4.257   0.748 -0.0148  0.7124 -0.0270
14812SOL    HW144614   6.951   4.285   0.653  0.4319  1.6439  0.2910
14812SOL    HW244615   7.013   4.296   0.803  2.1946 -3.0910  0.0623
14813SOL     OW44616   1.917   1.658   5.866 -0.3162 -0.5547 -0.7033
14813SOL    HW144617   1.964   1.594   5.804 -0.5030  0.8012 -2.3288
14813SOL    HW244618   1.854   1.715   5.813  0.7151  1.7931  0.4418
14814SOL     OW44619   2.953   4.233   8.854  0.0863 -0.5242 -0.3635
14814SOL    HW144620   2.936   4.214   8.951  0.6932 -0.5088 -0.2498
14814SOL    HW244621   2.900   4.313   8.826  1.1877  0.5226  0.4096
14815SOL     OW44622   3.731   0.326   2.917 -0.2441 -0.1743  0.1589
14815SOL    HW144623   3.683   0.399   2.869 -0.5163 -0.9159 -0.7379
14815SOL    HW244624   3.663   0.264   2.958 -0.0225 -0.1089  0.6285
14816SOL     OW44625   7.432   4.460   3.265 -0.1464  0.7892  0.5919
14816SOL    HW144626   7.394   4.414   3.185  2.3278  0.5128 -0.5006
14816SOL    HW244627   7.451   4.556   3.243  1.7287  0.3972  0.3912
14817SOL     OW44628   2.887   7.083   5.798 -0.3221 -0.6426 -0.3133
14817SOL    HW144629   2.844   6.995   5.816 -1.4287  0.2783  1.8606
14817SOL    HW244630   2.981   7.083   5.832 -1.0701 -0.2877  1.9213
14818SOL     OW44631   1.604   1.706   5.055  0.0167  0.3018 -0.3650
14818SOL    HW144632   1.684   1.705   5.115  0.3826 -3.6278 -0.7166
14818SOL    HW244633   1.634   1.712   4.960 -0.2257  0.6412 -0.4200
14819SOL     OW44634   4.156   4.942   6.582  0.2007 -0.4455 -0.4262
14819SOL    HW144635   4.065   4.930   6.541 -0.4378 -0.6601  1.0106
14819SOL    HW244636   4.220   4.879   6.538 -1.0174 -2.4677  0.5516
14820SOL     OW44637   3.026   6.495   4.675  1.0460  0.3088  0.7620
14820SOL    HW144638   3.006   6.592   4.687  1.5908  0.4567  0.4992
14820SOL    HW244639   3.119   6.484   4.641  0.7594 -0.2707  0.1365
14821SOL     OW44640   5.921   5.369   1.558 -0.8177 -0.0779 -0.0403
14821SOL    HW144641   5.887   5.371   1.464  2.2319 -0.2108 -1.2527
14821SOL    HW244642   5.999   5.306   1.564 -2.2595 -1.8462  3.1386
14822SOL     OW44643   4.425   3.233   4.917 -0.5049  0.0417  0.2039
14822SOL    HW144644   4.490   3.159   4.933 -0.3818 -0.2973 -1.5955
14822SOL    HW244645   4.338   3.195   4.886 -0.7223  0.6005  0.1130
14823SOL     OW44646   6.676   2.409   5.596  0.1566  0.0538  0.4881
14823SOL    HW144647   6.773   2.429   5.585  0.4891 -0.5959  1.9535
14823SOL    HW244648   6.647   2.344   5.525  0.8025  0.1975  0.0887
14824SOL     OW44649   2.838   6.482   7.459  0.3659 -0.0504 -0.0767
14824SOL    HW144650   2.831   6.566   7.513 -0.4504 -0.6362  0.7666
14824SOL    HW244651   2.788   6.493   7.374 -0.2686  0.1216  0.3072
14825SOL     OW44652   2.588   2.032   0.829 -0.0858 -0.0404  0.3761
14825SOL    HW144653   2.518   1.977   0.783  0.6592 -1.7653  1.1844
14825SOL    HW244654   2.567   2.038   0.927  0.3660  0.2805  0.4587
14826SOL     OW44655   3.095   5.630   3.103 -0.2132 -0.9229  0.3254
14826SOL    HW144656   3.079   5.531   3.095 -1.8847 -0.5680 -1.3639
14826SOL    HW244657   3.178   5.654   3.053 -0.8666 -1.2523 -0.9860
14827SOL     OW44658   2.217   6.176   1.359  0.1666 -0.1530  0.1898
14827SOL    HW144659   2.132   6.191   1.309  0.2726  0.9045  0.2983
14827SOL    HW244660   2.292   6.162   1.295  0.0246 -0.4026  0.0803
14828SOL     OW44661   5.161   8.038   1.987  0.2494  0.0906  0.4691
14828SOL    HW144662   5.061   8.046   1.991  0.4114  4.4699  0.4864
14828SOL    HW244663   5.190   7.963   2.046 -3.0240 -2.1176 -0.4494
14829SOL     OW44664   3.304   6.590   6.705  0.5883 -0.1171 -0.0605
14829SOL    HW144665   3.338   6.525   6.637  0.8369 -1.7349  1.5193
14829SOL    HW244666   3.335   6.562   6.796 -1.4850  0.7380  0.9858
14830SOL     OW44667   3.975   3.336   4.757 -0.1097  0.3506 -0.4496
14830SOL    HW144668   3.896   3.337   4.695 -1.3546  3.1942  0.9855
14830SOL    HW244669   3.946   3.304   4.847  0.9574 -0.7290 -0.4671
14831SOL     OW44670   6.586   2.358   3.710 -0.0581 -0.2954  0.1447
14831SOL    HW144671   6.587   2.258   3.718  1.8966 -0.2799  0.6857
14831SOL    HW244672   6.664   2.387   3.654 -0.9010  0.9201 -0.4468
14832SOL     OW44673   6.979   5.018   6.102  0.4236  0.3632  0.3400
14832SOL    HW144674   6.938   5.035   6.013  0.6576  0.5434  0.2660
14832SOL    HW244675   7.079   5.023   6.095  0.4402  0.4899  0.6333
14833SOL     OW44676   7.366   2.542   8.106  0.2266 -0.2319  0.5458
14833SOL    HW144677   7.433   2.609   8.136  1.3470 -1.0578 -0.0220
14833SOL    HW244678   7.383   2.455   8.153 -1.3916 -0.0793  1.5082
14834SOL     OW44679   4.075   6.846   2.189  0.1790 -0.8906 -0.1010
14834SOL    HW144680   4.083   6.754   2.226 -0.0902 -0.7316  0.3597
14834SOL    HW244681   4.163   6.874   2.150  0.5853 -0.9012  0.7879
14835SOL     OW44682   3.308   4.890   6.139 -0.1378 -0.6320  0.0844
14835SOL    HW144683   3.212   4.865   6.154 -0.4547  1.0635  1.1746
14835SOL    HW244684   3.360   4.877   6.223  0.4086 -0.6895 -0.2532
14836SOL     OW44685   7.404   1.538   8.623  0.1680  0.1317  0.6562
14836SOL    HW144686   7.424   1.610   8.689  1.5662 -0.9018  1.4445
14836SOL    HW244687   7.414   1.449   8.667 -0.3539 -0.5678 -0.5750
14837SOL     OW44688   6.789   3.504   2.566 -0.5030  0.7490 -0.2317
14837SOL    HW144689   6.787   3.593   2.520 -0.0081 -0.5801 -3.0656
14837SOL    HW244690   6.716   3.500   2.634 -1.5228  2.7913 -1.1085
14838SOL     OW44691   2.902   3.019   4.033 -0.4215 -0.3062  0.1745
14838SOL    HW144692   2.899   2.948   4.104  1.3013  0.5995  1.2006
14838SOL    HW244693   2.876   3.107   4.072 -1.9556 -0.1987 -0.9629
14839SOL     OW44694   1.607   8.559   8.861 -0.5275  0.4395 -0.2311
14839SOL    HW144695   1.610   8.544   8.960  1.1066 -0.3687 -0.3785
14839SOL    HW244696   1.572   8.651   8.842 -0.3584  0.7906  1.1041
14840SOL     OW44697   0.936   6.075   1.017  0.0963  0.0899 -0.3101
14840SOL    HW144698   0.869   6.043   0.951  0.7560 -1.8159 -0.1127
14840SOL    HW244699   0.933   6.018   1.099  1.6372  0.2495 -0.1008
14841SOL     OW44700   1.346   5.016   6.679 -0.6018 -0.1187 -0.6248
14841SOL    HW144701   1.248   5.037   6.678 -0.0333  3.7681  2.4606
14841SOL    HW244702   1.394   5.078   6.617  0.0706 -0.7793 -0.7727
14842SOL     OW44703   4.046   5.441   1.967  0.3101  0.0898 -0.2621
14842SOL    HW144704   4.072   5.536   1.950 -1.1323  0.3565 -1.1041
14842SOL    HW244705   3.989   5.436   2.049  1.2749 -0.2109  0.4027
14843SOL     OW44706   2.286   5.818   4.180  0.6883  0.1211  0.2406
14843SOL    HW144707   2.260   5.863   4.095  1.7013  0.1829 -0.0467
14843SOL    HW244708   2.261   5.877   4.258 -0.3282  0.0178 -0.0044
14844SOL     OW44709   8.012   2.710   1.220  0.1160  0.1549  0.2995
14844SOL    HW144710   7.985   2.616   1.198 -0.1227  0.5360 -1.1518
14844SOL    HW244711   7.980   2.733   1.312 -0.2294 -1.0171  0.4946
14845SOL     OW44712   8.673   2.762   6.216  0.1035  0.3230  0.2437
14845SOL    HW144713   8.594   2.717   6.258  0.0815  0.1306 -0.0072
14845SOL    HW244714   8.642   2.839   6.161 -0.1401 -1.2302 -1.8844
14846SOL     OW44715   3.211   4.717   0.502  0.2674  0.0262 -0.1557
14846SOL    HW144716   3.232   4.724   0.404  0.0179 -0.7432 -0.2751
14846SOL    HW244717   3.226   4.623   0.532  2.0268  0.6260  0.9628
14847SOL     OW44718   1.742   1.660   1.096  0.2862  0.4761  0.1657
14847SOL    HW144719   1.838   1.644   1.121 -0.0792  0.4272  1.6272
14847SOL    HW244720   1.728   1.634   1.000  1.5264 -0.3929  0.1881
14848SOL     OW44721   5.265   2.369   0.523  0.4850 -0.2065 -0.0180
14848SOL    HW144722   5.188   2.414   0.478 -0.6017 -0.1871  1.7747
14848SOL    HW244723   5.233   2.322   0.605  2.2495 -0.9821  0.2748
14849SOL     OW44724   0.201   3.573   6.155 -0.5841  0.2667 -0.3936
14849SOL    HW144725   0.204   3.473   6.148  0.0155  0.2924 -0.5454
14849SOL    HW244726   0.105   3.603   6.154 -0.7904 -0.3400  0.1982
14850SOL     OW44727   3.416   2.852   8.664  0.0284  0.2731 -0.0897
14850SOL    HW144728   3.515   2.835   8.666 -0.1302 -0.9188 -0.9616
14850SOL    HW244729   3.369   2.769   8.636 -1.3984  0.2932  2.0952
14851SOL     OW44730   8.028   6.355   4.597 -0.0988 -0.1200 -0.1968
14851SOL    HW144731   8.073   6.351   4.686 -0.7436  1.3876  0.2346
14851SOL    HW244732   8.085   6.409   4.534 -0.4590  0.3090 -0.1624
14852SOL     OW44733   0.708   8.812   0.313 -0.6789 -0.9039  0.3476
14852SOL    HW144734   0.675   8.816   0.219 -0.0098 -0.9906  0.1013
14852SOL    HW244735   0.753   8.724   0.329 -3.0649 -1.9862  1.5378
14853SOL     OW44736   1.964   2.395   8.319  0.4351 -0.8913  0.7724
14853SOL    HW144737   1.878   2.364   8.279 -1.0068  0.2737  2.7643
14853SOL    HW244738   2.039   2.337   8.287 -0.9435 -1.5102 -1.5779
14854SOL     OW44739   4.040   6.431   4.367 -0.1845  0.2214 -0.1638
14854SOL    HW144740   3.951   6.435   4.414 -0.1188  1.2627 -0.0959
14854SOL    HW244741   4.025   6.421   4.268 -0.5576  3.5794 -0.5799
14855SOL     OW44742   1.132   2.604   3.884 -0.1682  0.0264  0.2869
14855SOL    HW144743   1.057   2.668   3.872  0.4853  0.5990 -0.8952
14855SOL    HW244744   1.214   2.654   3.911  1.4665  0.4356 -4.5287
14856SOL     OW44745   8.038   7.789   2.664  0.2999 -0.4335 -0.0314
14856SOL    HW144746   8.122   7.837   2.689 -0.7354  0.7543  1.3597
14856SOL    HW244747   8.011   7.815   2.572  0.9920 -0.1237 -0.1513
14857SOL     OW44748   5.669   8.621   6.849  0.0985 -0.2519  0.2542
14857SOL    HW144749   5.769   8.619   6.859  0.1920  0.0980 -0.5093
14857SOL    HW244750   5.628   8.664   6.929  0.6564  0.7890 -0.0012
14858SOL     OW44751   3.614   5.680   7.953 -0.7463  0.1401 -0.1460
14858SOL    HW144752   3.635   5.671   7.855 -1.2788 -0.1283 -0.2389
14858SOL    HW244753   3.551   5.756   7.966  0.9194  1.5117  0.2310
14859SOL     OW44754   1.472   2.810   4.773 -0.3584 -0.2714 -0.4558
14859SOL    HW144755   1.384   2.819   4.726 -1.1447  0.5968  1.0788
14859SOL    HW244756   1.547   2.828   4.709 -1.3272 -0.3124 -1.6226
14860SOL     OW44757   0.689   3.504   4.601  0.3303 -0.5488  0.2668
14860SOL    HW144758   0.613   3.522   4.663 -1.0675 -2.9863 -0.6189
14860SOL    HW244759   0.711   3.588   4.551 -2.8997 -0.0602 -0.5822
14861SOL     OW44760   4.881   8.417   6.105  0.2186 -0.1360  0.0873
14861SOL    HW144761   4.896   8.320   6.121 -1.5604 -0.2573  1.3581
14861SOL    HW244762   4.927   8.470   6.175  0.0893 -0.1467  0.1809
14862SOL     OW44763   3.520   1.163   5.823 -0.3493 -0.2025 -0.5460
14862SOL    HW144764   3.453   1.147   5.896 -0.7270  1.1338 -0.5765
14862SOL    HW244765   3.507   1.095   5.751 -2.4570  0.6987 -1.0819
14863SOL     OW44766   2.931   3.224   1.043  0.7130  0.7389  0.5548
14863SOL    HW144767   2.883   3.164   1.108  1.0982  0.9417  1.0297
14863SOL    HW244768   2.937   3.178   0.955  2.2024 -0.5315  1.2714
14864SOL     OW44769   6.170   3.317   5.208 -0.1197  0.3125  0.3671
14864SOL    HW144770   6.098   3.284   5.269  0.7448 -0.6188  0.9045
14864SOL    HW244771   6.193   3.411   5.233 -1.4562  0.7947 -0.1120
14865SOL     OW44772   6.032   4.035   7.530 -0.0233 -0.7706  0.2806
14865SOL    HW144773   5.953   3.983   7.563 -0.1692 -1.2395 -0.7610
14865SOL    HW244774   6.045   4.116   7.587 -0.9566 -0.9450  0.7622
14866SOL     OW44775   3.843   5.734   8.060  0.4853  0.2421 -0.2250
14866SOL    HW144776   3.838   5.780   8.148  1.4227 -0.4891  0.2309
14866SOL    HW244777   3.751   5.717   8.025 -0.0039 -1.5723  1.7471
14867SOL     OW44778   1.644   4.666   4.893  0.6622 -0.3863 -0.2231
14867SOL    HW144779   1.614   4.725   4.968 -0.0016 -0.5734 -0.3276
14867SOL    HW244780   1.684   4.583   4.930  1.1170 -0.1013 -0.0758
14868SOL     OW44781   1.106   0.453   7.125  0.0394 -0.2733  0.3320
14868SOL    HW144782   1.091   0.451   7.026  0.9612  1.3896  0.1220
14868SOL    HW244783   1.196   0.492   7.145  0.1183 -1.1381  1.8193
14869SOL     OW44784   8.467   7.963   7.833  0.1507  0.1158  0.2171
14869SOL    HW144785   8.399   7.961   7.759 -0.3606 -0.8185  0.6896
14869SOL    HW244786   8.553   7.924   7.800 -0.5229 -1.7175  0.5073
14870SOL     OW44787   2.295   0.850   6.745  0.1793 -0.7392 -0.1329
14870SOL    HW144788   2.195   0.851   6.741  0.1099  0.8913  1.0855
14870SOL    HW244789   2.331   0.798   6.667 -1.5500  1.0056 -2.2222
14871SOL     OW44790   5.436   3.432   8.835 -0.2738  0.1675  0.3894
14871SOL    HW144791   5.396   3.485   8.760 -1.9907  1.9682  2.4505
14871SOL    HW244792   5.515   3.481   8.872  0.9872 -1.0482 -0.6270
14872SOL     OW44793   7.724   3.779   2.133  0.1858 -0.0870  0.0692
14872SOL    HW144794   7.821   3.800   2.120  0.1741 -0.0774 -0.0035
14872SOL    HW244795   7.690   3.730   2.052 -0.3085  1.4454 -0.6881
14873SOL     OW44796   8.190   0.498   5.563 -0.1868 -0.1178 -0.2699
14873SOL    HW144797   8.129   0.501   5.642 -0.0492 -0.4024 -0.1506
14873SOL    HW244798   8.265   0.563   5.577  1.7703 -2.5387  1.4623
14874SOL     OW44799   0.491   5.507   5.285 -0.3622  0.3547  0.0298
14874SOL    HW144800   0.427   5.533   5.358 -1.1660  0.4723 -0.6987
14874SOL    HW244801   0.555   5.583   5.270 -1.0225  0.8642 -0.2748
14875SOL     OW44802   1.976   7.405   5.624 -0.5011 -0.6264 -0.0732
14875SOL    HW144803   1.952   7.501   5.610  2.1928  0.0631 -0.4078
14875SOL    HW244804   1.927   7.370   5.704  0.0093  1.6257  1.3035
14876SOL     OW44805   5.155   0.750   4.276 -0.1398 -0.0082 -0.6430
14876SOL    HW144806   5.188   0.656   4.281 -0.2134  0.0374  1.4240
14876SOL    HW244807   5.112   0.765   4.187  1.4850 -1.3546 -1.7267
14877SOL     OW44808   2.360   2.465   7.230  0.2448  0.1543  0.1311
14877SOL    HW144809   2.448   2.447   7.275 -0.2246 -0.6091  0.7554
14877SOL    HW244810   2.285   2.442   7.292 -0.4208 -1.1817 -1.1369
14878SOL     OW44811   0.959   3.878   5.512  0.4912  0.4430  0.6833
14878SOL    HW144812   0.969   3.936   5.593 -0.3092  0.9331  0.4472
14878SOL    HW244813   0.924   3.933   5.436  0.4889 -0.1798  0.2270
14879SOL     OW44814   0.781   4.497   6.413 -0.2003  0.1875 -0.2388
14879SOL    HW144815   0.820   4.522   6.501  1.1296  0.0610 -0.7783
14879SOL    HW244816   0.710   4.564   6.388 -0.1809  0.5497  0.6408
14880SOL     OW44817   2.143   2.809   1.859  0.1869 -0.7856  0.0239
14880SOL    HW144818   2.155   2.861   1.944  0.1587  0.6269 -0.8099
14880SOL    HW244819   2.056   2.759   1.863  0.1137 -0.6188  0.7592
14881SOL     OW44820   6.190   4.225   5.312 -0.2684 -0.2937 -0.3581
14881SOL    HW144821   6.257   4.176   5.368 -1.4345 -0.9737  0.4999
14881SOL    HW244822   6.127   4.274   5.372 -0.1612  0.8641 -1.1682
14882SOL     OW44823   8.407   2.817   7.047 -0.4229  0.0927 -0.4496
14882SOL    HW144824   8.463   2.735   7.041  0.9863  0.9320  0.7236
14882SOL    HW244825   8.390   2.853   6.955 -0.5931 -1.1780 -0.9353
14883SOL     OW44826   3.451   0.077   6.247  0.1268  0.7436 -0.2960
14883SOL    HW144827   3.543   0.069   6.284  0.5309 -1.6282 -1.6185
14883SOL    HW244828   3.439   0.012   6.172 -2.5371  1.2005 -0.3786
14884SOL     OW44829   5.960   4.900   1.832  0.3892 -0.2819 -0.4762
14884SOL    HW144830   5.936   4.996   1.824 -1.0489 -0.4845  0.8327
14884SOL    HW244831   5.964   4.875   1.929  0.3015 -1.6407 -0.7969
14885SOL     OW44832   6.673   7.918   2.154  0.1324 -0.0072 -0.4376
14885SOL    HW144833   6.728   7.858   2.212  1.2114  1.7828  0.4716
14885SOL    HW244834   6.725   7.942   2.073  0.1925  0.6614 -0.2044
14886SOL     OW44835   6.085   6.886   6.112 -0.0696  0.2013  0.0989
14886SOL    HW144836   6.149   6.848   6.179 -0.9407 -1.3944  0.0603
14886SOL    HW244837   6.134   6.905   6.026  0.6329  0.3729  0.5288
14887SOL     OW44838   7.845   6.308   4.072 -0.2675  0.1273  0.0623
14887SOL    HW144839   7.822   6.291   3.976  0.2722  1.1509 -0.2600
14887SOL    HW244840   7.801   6.238   4.130  0.4645 -1.2852 -1.0301
14888SOL     OW44841   8.847   5.565   5.040 -0.4195 -0.0444 -0.3750
14888SOL    HW144842   8.898   5.557   4.954  1.7337  1.4287  0.6904
14888SOL    HW244843   8.828   5.473   5.075  3.7458 -0.8291  0.3779
14889SOL     OW44844   1.641   2.699   0.507 -0.9304  0.2496 -0.6925
14889SOL    HW144845   1.616   2.740   0.419 -1.2177 -1.3730 -1.4078
14889SOL    HW244846   1.637   2.599   0.499  2.3126 -0.0559  0.1721
14890SOL     OW44847   0.429   4.233   6.410  0.4800 -0.1593 -0.1860
14890SOL    HW144848   0.374   4.191   6.338  1.2905 -0.4021 -0.6645
14890SOL    HW244849   0.455   4.163   6.477 -0.7191  0.1606  0.6492
14891SOL     OW44850   8.043   4.334   4.218  0.0229 -0.0568  0.4335
14891SOL    HW144851   7.990   4.359   4.137 -1.7443 -3.2095  0.4737
14891SOL    HW244852   7.992   4.359   4.300  0.7735  1.0560  0.5836
14892SOL     OW44853   5.081   8.532   3.976 -0.2234  0.2558 -0.5469
14892SOL    HW144854   5.088   8.434   3.962  0.4006 -0.1280  1.9256
14892SOL    HW244855   5.162   8.577   3.937  0.0455 -0.3347 -0.6815
14893SOL     OW44856   7.431   3.506   1.377 -0.1986 -0.3207 -0.1977
14893SOL    HW144857   7.486   3.441   1.430  1.9826  1.0663 -0.6525
14893SOL    HW244858   7.424   3.474   1.282 -0.2770 -0.5651 -0.1096
14894SOL     OW44859   1.728   0.061   0.185 -0.2588 -0.2995 -0.3889
14894SOL    HW144860   1.636   0.063   0.226 -1.0134  1.4180 -1.9855
14894SOL    HW244861   1.785  -0.004   0.234 -1.4711  0.6460  2.4879
14895SOL     OW44862   8.705   6.729   2.749  0.3816  0.1566  0.4266
14895SOL    HW144863   8.699   6.811   2.693 -1.8906 -0.4397 -0.3272
14895SOL    HW244864   8.634   6.732   2.819  0.5708 -0.9665  0.6826
14896SOL     OW44865   7.867   6.018   7.859 -0.1535  0.0137 -0.1818
14896SOL    HW144866   7.966   6.006   7.866  0.4226  4.0320  1.1751
14896SOL    HW244867   7.822   5.963   7.929  1.5668  1.1314  1.9629
14897SOL     OW44868   6.564   2.001   4.156  0.1439  0.6535 -0.3860
14897SOL    HW144869   6.610   2.076   4.107  0.4026  0.6223 -0.1925
14897SOL    HW244870   6.465   2.007   4.141  0.2091  0.7262 -0.8006
14898SOL     OW44871   6.777   7.514   4.488 -0.3940  0.2219 -0.0034
14898SOL    HW144872   6.817   7.481   4.403 -0.5408  1.7349 -0.6892
14898SOL    HW244873   6.805   7.609   4.504 -0.6579  0.0885  1.4627
14899SOL     OW44874   6.808   6.324   7.917  0.4168  0.2998 -0.0869
14899SOL    HW144875   6.737   6.389   7.891 -0.0483  0.3704  1.2991
14899SOL    HW244876   6.816   6.321   8.017  0.4302 -1.7368 -0.1033
14900SOL     OW44877   8.550   8.023   8.391 -0.3941  0.2230  0.3804
14900SOL    HW144878   8.547   7.938   8.338  0.7381  0.7374 -0.5290
14900SOL    HW244879   8.510   8.097   8.338  2.9134  1.2877 -0.9054
14901SOL     OW44880   8.833   5.978   7.981 -0.1852 -0.2200 -0.6215
14901SOL    HW144881   8.915   6.010   8.028 -0.4347 -1.5442  0.7854
14901SOL    HW244882   8.758   5.970   8.047 -0.8629 -1.0509 -1.4641
14902SOL     OW44883   3.572   4.288   1.384 -0.5371  0.1837  0.2118
14902SOL    HW144884   3.499   4.357   1.387 -0.7147  0.0297 -0.4144
14902SOL    HW244885   3.533   4.198   1.370 -0.1670  0.2836 -1.9195
14903SOL     OW44886   1.016   7.310   7.643 -0.3246 -0.3935  0.4155
14903SOL    HW144887   0.989   7.401   7.674 -0.4416 -0.4526  0.4880
14903SOL    HW244888   1.082   7.271   7.708 -0.6689 -0.5705  0.6662
14904SOL     OW44889   5.816   7.469   1.530 -0.4161  0.1977 -0.0808
14904SOL    HW144890   5.744   7.434   1.470 -0.1478 -0.2015 -0.1731
14904SOL    HW244891   5.903   7.425   1.508  0.3234  2.1800 -1.3668
14905SOL     OW44892   3.616   7.434   3.907 -0.1809 -0.2147 -0.5960
14905SOL    HW144893   3.645   7.453   3.813  4.2239 -4.0823 -0.3491
14905SOL    HW244894   3.562   7.350   3.909 -0.7083  0.1291  0.3457
14906SOL     OW44895   6.825   2.853   3.407  0.0885 -0.0140  0.3000
14906SOL    HW144896   6.805   2.912   3.329  1.1147  0.0607  0.0702
14906SOL    HW244897   6.921   2.864   3.433 -0.6727  1.4496  2.8417
14907SOL     OW44898   1.437   4.133   4.463 -0.4154  0.2101  0.5045
14907SOL    HW144899   1.348   4.131   4.508 -1.1234  0.7306 -0.8466
14907SOL    HW244900   1.457   4.043   4.424  0.0752 -0.1615  1.5579
14908SOL     OW44901   7.885   0.571   6.667 -0.4312 -0.7489 -0.0557
14908SOL    HW144902   7.843   0.480   6.674 -1.2031 -0.4277 -0.3432
14908SOL    HW244903   7.819   0.640   6.698  0.3930 -0.3375  0.8095
14909SOL     OW44904   8.349   8.852   2.418 -0.2876  0.3675 -0.1965
14909SOL    HW144905   8.343   8.927   2.352 -0.9265 -0.4386 -1.0695
14909SOL    HW244906   8.416   8.875   2.489 -0.2293  1.6112 -0.6411
14910SOL     OW44907   4.600   2.891   1.122  0.6965  0.2607  0.6626
14910SOL    HW144908   4.586   2.794   1.101  0.9914  0.0150  1.5667
14910SOL    HW244909   4.571   2.910   1.216  0.1914  1.1581  0.3411
14911SOL     OW44910   2.644   1.158   2.170 -0.3594  0.1054 -0.2660
14911SOL    HW144911   2.581   1.224   2.212 -0.3834  0.6579 -1.1463
14911SOL    HW244912   2.714   1.207   2.118  0.5325 -0.5195  0.3054
14912SOL     OW44913   3.292   1.738   2.277 -0.1075  0.5483 -1.2611
14912SOL    HW144914   3.369   1.748   2.214  1.6188  1.5629  0.8884
14912SOL    HW244915   3.282   1.821   2.331 -0.6865 -0.7171  0.6724
14913SOL     OW44916   6.442   2.528   8.438  0.0735 -0.5784  0.3470
14913SOL    HW144917   6.404   2.439   8.412 -0.3160  0.2093 -2.0587
14913SOL    HW244918   6.369   2.597   8.436 -0.4814 -0.6104  5.6441
14914SOL     OW44919   3.394   5.476   3.142 -0.0667 -0.0730 -0.2677
14914SOL    HW144920   3.460   5.487   3.216 -0.8226  0.6483  0.3152
14914SOL    HW244921   3.391   5.559   3.086 -0.1272 -0.2887 -0.5925
14915SOL     OW44922   5.555   1.227   6.078  0.1594  0.0584 -0.1496
14915SOL    HW144923   5.493   1.180   6.141 -2.2669  0.5557 -2.0256
14915SOL    HW244924   5.568   1.321   6.109  1.1344 -0.4132  0.9761
14916SOL     OW44925   3.654   5.459   1.386 -0.1448 -0.4990 -0.0237
14916SOL    HW144926   3.646   5.485   1.482  1.8131  1.3894 -0.2948
14916SOL    HW244927   3.695   5.368   1.379 -0.7080 -0.8349  0.9041
14917SOL     OW44928   1.254   7.253   3.124  0.5143 -0.8035 -0.6397
14917SOL    HW144929   1.207   7.247   3.212  0.2099  1.2841 -0.5933
14917SOL    HW244930   1.339   7.201   3.127  1.2636  0.4374  1.4278
14918SOL     OW44931   8.842   1.476   3.869 -0.1377 -0.5261 -0.3419
14918SOL    HW144932   8.910   1.522   3.811  0.8008  0.4640  1.4794
14918SOL    HW244933   8.753   1.519   3.856  0.8278  2.3283  1.7380
14919SOL     OW44934   3.395   5.494   2.745  0.2618 -0.6373 -0.3833
14919SOL    HW144935   3.470   5.476   2.807 -0.1475 -1.1984 -0.0449
14919SOL    HW244936   3.405   5.437   2.663  1.8293  1.4138 -1.7562
14920SOL     OW44937   6.835   5.455   7.933 -0.2339 -0.1094 -0.5749
14920SOL    HW144938   6.849   5.544   7.890 -1.0029 -0.5421 -1.7909
14920SOL    HW244939   6.922   5.407   7.939  0.3558  1.0719  0.9650
14921SOL     OW44940   8.104   0.599   0.169 -0.4107  0.0314  0.2506
14921SOL    HW144941   8.118   0.528   0.238 -2.1607 -1.1523 -0.5398
14921SOL    HW244942   8.056   0.677   0.210 -1.2333 -0.5670  0.4546
14922SOL     OW44943   8.034   6.837   3.752 -0.4738 -0.5547  0.4726
14922SOL    HW144944   8.113   6.891   3.781 -1.4975  0.9847  0.5081
14922SOL    HW244945   8.031   6.834   3.652 -1.0603  0.4702  0.4523
14923SOL     OW44946   2.422   4.758   4.257 -0.0541 -0.0448  0.6512
14923SOL    HW144947   2.503   4.714   4.217 -0.2302 -1.0034  1.3211
14923SOL    HW244948   2.345   4.695   4.254 -0.8339  0.9158 -0.1130
14924SOL     OW44949   1.323   7.025   2.018  0.0636 -0.8368  0.6498
14924SOL    HW144950   1.338   6.977   2.104  0.2463 -0.6572  0.7161
14924SOL    HW244951   1.271   6.965   1.956 -0.9830 -0.5630  1.2555
14925SOL     OW44952   8.378   1.161   0.286 -0.1933 -0.0139 -0.2782
14925SOL    HW144953   8.474   1.157   0.315 -0.1593  0.5339 -0.3151
14925SOL    HW244954   8.324   1.208   0.355 -0.8174 -2.0526  0.7000
14926SOL     OW44955   8.427   0.474   7.212  0.1586  0.2091  0.0214
14926SOL    HW144956   8.457   0.444   7.121  0.4236  0.8036 -0.0986
14926SOL    HW244957   8.362   0.549   7.202  0.5931  0.6366  0.3243
14927SOL     OW44958   7.429   5.047   0.573 -0.2029  0.2588 -0.2719
14927SOL    HW144959   7.409   5.129   0.626  1.8219  0.2198  0.6751
14927SOL    HW244960   7.516   5.060   0.525  0.7254 -1.7092  0.7855
14928SOL     OW44961   6.198   7.026   8.273 -0.0358  0.4675 -0.2624
14928SOL    HW144962   6.112   7.062   8.310 -0.9630 -0.1239 -1.7555
14928SOL    HW244963   6.218   6.936   8.312  0.3895  0.9816  0.7439
14929SOL     OW44964   2.537   7.508   6.024  0.5787 -0.2393 -0.1590
14929SOL    HW144965   2.491   7.470   5.944  0.2347 -0.2673  0.0522
14929SOL    HW244966   2.521   7.607   6.027 -1.1267 -0.5118  0.9849
14930SOL     OW44967   2.906   0.797   6.499 -0.3250 -0.7891 -0.3337
14930SOL    HW144968   2.922   0.738   6.420 -0.9214 -0.0341 -1.0263
14930SOL    HW244969   2.883   0.889   6.468 -0.2160 -0.3931  0.7266
14931SOL     OW44970   1.427   5.631   5.088 -0.0536  0.3605  0.0740
14931SOL    HW144971   1.521   5.647   5.058 -0.2927  0.1790 -0.8236
14931SOL    HW244972   1.364   5.654   5.013 -0.6370 -0.8148  0.1801
14932SOL     OW44973   1.737   7.464   3.982  0.3843  0.2675 -0.2416
14932SOL    HW144974   1.801   7.477   3.906 -0.0289  1.7467 -0.3731
14932SOL    HW244975   1.662   7.530   3.973 -0.5564 -0.6690  0.5405
14933SOL     OW44976   8.196   3.655   1.120 -0.3675  0.1047 -0.3476
14933SOL    HW144977   8.174   3.735   1.175  0.9183 -0.0930  0.4830
14933SOL    HW244978   8.151   3.574   1.158 -0.4294  0.1616 -0.2993
14934SOL     OW44979   2.874   7.350   2.768  0.2488  0.3759  0.1037
14934SOL    HW144980   2.898   7.427   2.709 -0.3671  0.4100 -0.1141
14934SOL    HW244981   2.956   7.314   2.811  0.4672  1.6252  0.7882
14935SOL     OW44982   2.725   0.157   4.816 -0.0144  0.4682 -0.3754
14935SOL    HW144983   2.743   0.211   4.898 -0.1168 -0.7348  0.4744
14935SOL    HW244984   2.701   0.063   4.842 -0.8511  0.2655 -1.7558
14936SOL     OW44985   7.941   1.838   2.751 -0.0816 -0.0357  0.1448
14936SOL    HW144986   7.852   1.854   2.708 -1.0650 -1.7616  1.4098
14936SOL    HW244987   7.962   1.913   2.813 -0.8708  0.1882  0.1522
14937SOL     OW44988   5.401   8.373   8.201  0.7525 -0.3401  0.2173
14937SOL    HW144989   5.499   8.354   8.192  1.0199  0.7363  0.5994
14937SOL    HW244990   5.380   8.391   8.297  0.5124  1.0467 -0.0765
14938SOL     OW44991   5.778   2.785   8.374  0.1517 -0.0330 -0.2038
14938SOL    HW144992   5.686   2.820   8.394 -0.6207 -1.7029 -0.6972
14938SOL    HW244993   5.776   2.736   8.287  1.0633 -1.7347  0.7009
14939SOL     OW44994   4.725   5.528   3.989  0.6230 -0.0643 -0.0144
14939SOL    HW144995   4.642   5.584   3.994  1.6677  2.0214 -2.9135
14939SOL    HW244996   4.708   5.447   3.934  0.0473 -0.7128  1.0859
14940SOL     OW44997   5.100   2.390   5.711 -0.1117  0.2292 -0.0372
14940SOL    HW144998   5.152   2.426   5.789  0.4146  3.4369 -1.6751
14940SOL    HW244999   5.095   2.291   5.717 -0.4813  0.3129  4.2520
14941SOL     OW45000   8.744   0.869   4.129  0.2178  0.2564  0.3534
14941SOL    HW145001   8.751   0.770   4.144  2.0089  0.3756  0.4484
14941SOL    HW245002   8.649   0.897   4.140 -0.2018 -1.3362  1.0614
14942SOL     OW45003   4.998   6.807   2.845 -0.4553  0.0382 -0.9712
14942SOL    HW145004   4.911   6.794   2.893  0.7362 -0.7107  1.1024
14942SOL    HW245005   4.993   6.891   2.791 -1.4274  1.7945  1.6355
14943SOL     OW45006   4.398   3.345   3.017  0.0091  0.5126 -0.3257
14943SOL    HW145007   4.361   3.300   3.098 -0.0682 -0.0052 -0.6464
14943SOL    HW245008   4.416   3.441   3.038  0.9494  0.1542  0.6083
14944SOL     OW45009   4.981   7.693   3.809  0.6185 -0.0891 -0.5662
14944SOL    HW145010   4.933   7.698   3.721 -0.6913 -1.3856  0.0343
14944SOL    HW245011   4.955   7.771   3.866  2.7843  1.7172 -1.8897
14945SOL     OW45012   8.845   4.926   7.359  0.0682  0.1469 -0.1850
14945SOL    HW145013   8.789   4.897   7.282  1.9452  2.0984 -2.4528
14945SOL    HW245014   8.914   4.856   7.379 -1.2227 -0.9305  0.6417
14946SOL     OW45015   0.062   1.202   3.971 -0.7088  0.2333  0.0324
14946SOL    HW145016   0.050   1.194   4.070 -3.1718  2.1374 -0.0162
14946SOL    HW245017   0.026   1.290   3.940  0.4196 -0.1297 -2.5199
14947SOL     OW45018   0.251   5.723   8.363 -0.1602  0.5683  0.3742
14947SOL    HW145019   0.298   5.809   8.340  0.6173 -0.2667 -1.3183
14947SOL    HW245020   0.201   5.691   8.282 -0.1381 -0.7584  0.8777
14948SOL     OW45021   3.723   3.391   4.591  0.1307 -0.1510 -0.3746
14948SOL    HW145022   3.703   3.489   4.586  0.7217  0.0227  0.4363
14948SOL    HW245023   3.659   3.348   4.655  2.9225  0.6424  3.3029
14949SOL     OW45024   7.568   7.819   3.801  0.0861 -0.1405  0.2912
14949SOL    HW145025   7.537   7.909   3.829  0.1426 -0.1865  0.5025
14949SOL    HW245026   7.593   7.765   3.882  0.9858 -0.0053  0.1117
14950SOL     OW45027   1.790   6.763   0.338 -0.3303 -0.8883 -0.2040
14950SOL    HW145028   1.767   6.798   0.247  0.9600  0.6765  0.0187
14950SOL    HW245029   1.712   6.776   0.400 -0.2728  0.6668 -0.4126
14951SOL     OW45030   4.100   8.109   0.812  0.4827 -0.6320 -0.2724
14951SOL    HW145031   4.136   8.137   0.901  0.4854  0.0847 -0.4944
14951SOL    HW245032   4.023   8.046   0.826  0.4359 -0.4683  0.2379
14952SOL     OW45033   8.025   6.280   2.094 -0.1142  1.2608  0.0999
14952SOL    HW145034   8.024   6.255   1.998  0.5385 -1.2754  0.6844
14952SOL    HW245035   7.931   6.281   2.129 -0.2419  0.7140 -0.2223
14953SOL     OW45036   8.065   2.803   8.791  0.0828 -0.0941  0.3188
14953SOL    HW145037   8.074   2.851   8.879  2.5120 -0.9157  0.6048
14953SOL    HW245038   7.976   2.757   8.787 -2.3149  4.0696  0.1047
14954SOL     OW45039   7.180   1.288   2.441  0.5703  0.0121 -0.1894
14954SOL    HW145040   7.086   1.313   2.461  0.1008 -0.8299 -1.2492
14954SOL    HW245041   7.240   1.366   2.459 -0.4610  0.8791 -0.4395
14955SOL     OW45042   8.744   0.584   1.466 -0.1587 -0.5156 -0.1795
14955SOL    HW145043   8.721   0.681   1.458 -1.1286 -0.5860  1.3009
14955SOL    HW245044   8.747   0.558   1.563 -1.5614 -2.3117 -0.5496
14956SOL     OW45045   0.554   1.034   7.275 -0.4080  0.0509 -0.5319
14956SOL    HW145046   0.640   0.983   7.279 -0.2169  0.2626 -1.5713
14956SOL    HW245047   0.491   0.988   7.213 -0.9457  0.0484  0.0107
14957SOL     OW45048   4.211   5.348   5.568  0.3582 -0.0911  0.4610
14957SOL    HW145049   4.178   5.266   5.614  1.2195 -0.9325 -0.3821
14957SOL    HW245050   4.255   5.323   5.482  0.8390  1.2390  0.2924
14958SOL     OW45051   7.895   8.692   4.597  0.2980  0.1269 -0.0659
14958SOL    HW145052   7.813   8.651   4.637  0.3423  0.0531 -0.0495
14958SOL    HW245053   7.878   8.711   4.500  0.5825 -0.7909 -0.3115
14959SOL     OW45054   2.889   5.743   1.496 -0.1705  0.0628 -0.4660
14959SOL    HW145055   2.939   5.678   1.439 -1.1994  0.2680 -1.6514
14959SOL    HW245056   2.861   5.821   1.441 -1.2469  0.2516  0.3159
14960SOL     OW45057   5.115   0.310   4.880  0.8138 -0.3277  0.3667
14960SOL    HW145058   5.079   0.241   4.817  0.0354 -1.2036  1.7208
14960SOL    HW245059   5.212   0.293   4.896  1.2394  0.4191 -1.2197
14961SOL     OW45060   3.626   6.665   4.381  0.1118  0.3293  0.7110
14961SOL    HW145061   3.713   6.711   4.364 -0.5740  1.3915 -0.0649
14961SOL    HW245062   3.553   6.713   4.333 -1.0701  0.0621  2.1624
14962SOL     OW45063   7.842   4.840   1.037  0.6810  0.1279 -0.4694
14962SOL    HW145064   7.854   4.853   1.135  1.5345 -0.9649 -0.4119
14962SOL    HW245065   7.824   4.928   0.994 -0.2701  0.5562  0.7278
14963SOL     OW45066   3.808   4.846   2.493  0.1565  0.0016 -0.0752
14963SOL    HW145067   3.836   4.750   2.488  1.0389  0.2038  0.7118
14963SOL    HW245068   3.802   4.875   2.589 -3.3357 -0.1521 -0.1073
14964SOL     OW45069   1.967   1.349   8.428  0.6893 -0.1233  0.0704
14964SOL    HW145070   2.014   1.437   8.437  0.4231  0.0189  0.0759
14964SOL    HW245071   1.872   1.359   8.458  0.8840 -0.6131  0.8674
14965SOL     OW45072   8.088   8.581   6.740  0.5590  0.0294  0.6567
14965SOL    HW145073   8.136   8.531   6.813 -0.2452  0.0405  1.2057
14965SOL    HW245074   8.026   8.648   6.782 -0.6451 -0.6408 -0.0158
14966SOL     OW45075   3.628   0.970   1.312 -0.0603  0.1070 -0.0078
14966SOL    HW145076   3.574   0.914   1.250  0.1107  1.3667 -1.3308
14966SOL    HW245077   3.689   1.029   1.260  0.0285  1.2745  1.3593
14967SOL     OW45078   4.406   6.681   5.021 -0.5272 -0.2120 -0.7350
14967SOL    HW145079   4.503   6.657   5.020 -0.8830 -1.8180  0.0220
14967SOL    HW245080   4.363   6.645   4.938 -0.7694 -0.9312 -0.3084
14968SOL     OW45081   2.443   0.989   4.522  0.0014 -0.2040  0.3004
14968SOL    HW145082   2.523   0.999   4.581  0.8543  1.5200 -1.0472
14968SOL    HW245083   2.473   0.976   4.427 -1.2362  1.9618 -0.4664
14969SOL     OW45084   6.223   0.913   8.587  0.7533  0.0767 -0.4303
14969SOL    HW145085   6.272   0.889   8.503  0.9688 -0.8235 -0.0571
14969SOL    HW245086   6.237   0.842   8.655  1.3253  1.2270  0.6929
14970SOL     OW45087   6.320   5.040   3.601 -0.4896  0.5225 -0.1603
14970SOL    HW145088   6.220   5.044   3.604 -0.7743 -0.5722 -3.8260
14970SOL    HW245089   6.356   5.048   3.694 -4.0039 -0.6932  1.4920
14971SOL     OW45090   0.791   8.527   5.228  0.0336  0.0197 -0.2078
14971SOL    HW145091   0.767   8.456   5.161 -0.2326  0.1684 -0.2732
14971SOL    HW245092   0.811   8.484   5.316 -2.4131 -0.0003  0.4017
14972SOL     OW45093   7.397   3.035   2.899 -0.0930  0.1465  0.3642
14972SOL    HW145094   7.478   3.088   2.874 -0.2590  0.4389  0.4417
14972SOL    HW245095   7.357   2.994   2.817  0.5147 -0.5531  0.4071
14973SOL     OW45096   5.326   5.510   2.645  0.1250 -0.4361 -0.8960
14973SOL    HW145097   5.356   5.591   2.595  0.2421 -0.8410 -1.4923
14973SOL    HW245098   5.229   5.494   2.627 -0.2949  0.4297  0.4233
14974SOL     OW45099   5.737   3.634   1.471 -0.1254 -0.1941 -0.5611
14974SOL    HW145100   5.683   3.716   1.487  1.0404  0.1306  2.1528
14974SOL    HW245101   5.813   3.656   1.410  1.4100  1.4010  1.7676
14975SOL     OW45102   7.602   0.764   1.302 -0.0696  0.2238  0.3876
14975SOL    HW145103   7.650   0.836   1.353  0.1152 -0.2777  0.9291
14975SOL    HW245104   7.653   0.743   1.218 -0.3671  1.0393 -0.0102
14976SOL     OW45105   1.296   0.917   6.822 -0.1742  0.1615  0.2274
14976SOL    HW145106   1.249   0.829   6.809 -1.6026  0.9301 -0.1111
14976SOL    HW245107   1.228   0.986   6.847  0.1149  2.1100 -3.6015
14977SOL     OW45108   3.261   1.937   3.872 -0.3940 -0.8903  0.0724
14977SOL    HW145109   3.329   1.914   3.802  0.0238 -1.1283  0.5555
14977SOL    HW245110   3.301   1.999   3.939 -0.4471 -1.5220  0.7064
14978SOL     OW45111   3.177   3.486   8.039  0.8927 -0.6759  0.0616
14978SOL    HW145112   3.157   3.546   8.116 -0.6640 -0.0531 -0.7896
14978SOL    HW245113   3.189   3.540   7.956 -0.4661 -1.4898 -0.7121
14979SOL     OW45114   8.669   5.815   7.179 -0.2962  0.1380 -0.3197
14979SOL    HW145115   8.571   5.811   7.197 -0.2369 -0.0854 -0.0515
14979SOL    HW245116   8.685   5.811   7.080 -0.4820 -1.2736 -0.3118
14980SOL     OW45117   7.444   4.055   4.387 -0.2712 -0.2028 -0.1948
14980SOL    HW145118   7.429   4.108   4.304 -0.1418 -0.3740 -0.3277
14980SOL    HW245119   7.357   4.044   4.435 -0.0845  1.3384  0.5741
14981SOL     OW45120   3.215   6.431   8.825 -0.0018  0.0468  0.3961
14981SOL    HW145121   3.271   6.489   8.765 -0.7387  1.1189  0.7231
14981SOL    HW245122   3.144   6.385   8.770  1.5205 -1.8252 -0.1356
14982SOL     OW45123   1.780   1.251   1.597 -0.1523 -0.4758 -0.0384
14982SOL    HW145124   1.876   1.223   1.591  0.5519  1.5505  0.9627
14982SOL    HW245125   1.722   1.175   1.568  1.7480 -1.5979 -1.1520
14983SOL     OW45126   1.059   2.260   2.292  0.1516  0.5680 -0.2508
14983SOL    HW145127   1.141   2.269   2.236 -0.8556 -0.3582 -1.9816
14983SOL    HW245128   1.022   2.168   2.282 -0.4376  0.5945  1.4681
14984SOL     OW45129   6.879   4.488   2.291 -0.5044 -0.8597 -0.0378
14984SOL    HW145130   6.782   4.505   2.313 -0.6178  1.8132 -2.1055
14984SOL    HW245131   6.937   4.533   2.359 -0.7843  0.1893 -0.4665
14985SOL     OW45132   8.341   2.538   3.420 -0.5689  0.2449  0.4515
14985SOL    HW145133   8.397   2.547   3.502 -1.1583 -0.2553  0.9195
14985SOL    HW245134   8.261   2.597   3.426 -0.1897  0.8286 -0.1385
14986SOL     OW45135   5.296   4.520   5.381 -0.7437  0.0447 -0.2478
14986SOL    HW145136   5.358   4.595   5.404  1.2001 -1.0727 -1.5213
14986SOL    HW245137   5.341   4.432   5.399 -2.9914 -0.9089  1.3245
14987SOL     OW45138   0.582   1.370   8.304  0.0118 -0.4401 -0.1270
14987SOL    HW145139   0.662   1.387   8.247 -0.9413  0.8674 -1.1517
14987SOL    HW245140   0.586   1.277   8.340  1.2031 -0.9341 -1.4446
14988SOL     OW45141   3.506   1.657   1.681  0.5648 -0.4047  0.2645
14988SOL    HW145142   3.481   1.696   1.592 -1.5357  1.4467  1.5580
14988SOL    HW245143   3.548   1.729   1.737  2.1317 -1.6280  0.7364
14989SOL     OW45144   2.050   4.809   2.367  0.8113 -0.5749  0.0759
14989SOL    HW145145   2.086   4.737   2.307 -0.9022  0.6133 -2.6100
14989SOL    HW245146   2.073   4.898   2.328 -1.9436  0.2315  0.1086
14990SOL     OW45147   8.460   0.165   5.603 -0.2652  0.0331 -0.2373
14990SOL    HW145148   8.414   0.245   5.565  0.3297  1.2704  1.4959
14990SOL    HW245149   8.534   0.195   5.663 -0.3026 -1.8095  0.8012
14991SOL     OW45150   4.897   4.169   2.123 -0.1121 -0.2865  0.1478
14991SOL    HW145151   4.955   4.244   2.155 -2.0060  0.5619  1.7405
14991SOL    HW245152   4.886   4.177   2.023 -0.2185  1.5504  0.2575
14992SOL     OW45153   8.355   5.684   1.643 -0.4229 -0.1954  0.0691
14992SOL    HW145154   8.381   5.611   1.580 -0.3517  0.3948 -0.6008
14992SOL    HW245155   8.296   5.749   1.595 -4.7516 -2.3752  1.9216
14993SOL     OW45156   6.039   7.456   6.496  0.3279 -0.0214  0.2680
14993SOL    HW145157   6.043   7.408   6.408  0.4246 -0.4726  0.5151
14993SOL    HW245158   5.945   7.485   6.513 -0.3164 -2.4867  1.3401
14994SOL     OW45159   8.538   6.358   0.545  0.3660  0.0697  0.4776
14994SOL    HW145160   8.592   6.404   0.475  0.2864 -2.1895 -1.2080
14994SOL    HW245161   8.450   6.329   0.505 -0.1552 -0.3150  1.8430
14995SOL     OW45162   6.166   6.810   5.829 -0.4586  0.0429 -0.2920
14995SOL    HW145163   6.209   6.750   5.761 -1.6491 -0.9161 -0.2183
14995SOL    HW245164   6.068   6.816   5.812 -0.5217  1.1709  0.3287
14996SOL     OW45165   4.331   8.250   0.287 -0.1898  0.5321 -0.1863
14996SOL    HW145166   4.297   8.293   0.204  1.1292  0.4308 -0.8169
14996SOL    HW245167   4.324   8.313   0.364 -2.5889  0.1948 -0.0648
14997SOL     OW45168   1.772   7.384   7.940 -0.3200 -0.4424 -0.1879
14997SOL    HW145169   1.700   7.444   7.906 -1.6727 -2.0306 -0.2489
14997SOL    HW245170   1.810   7.330   7.865  0.4952 -0.0873 -0.0446
14998SOL     OW45171   1.085   3.191   4.308 -0.2007  0.2280  0.1447
14998SOL    HW145172   1.168   3.207   4.254 -1.0734 -0.2905 -1.3833
14998SOL    HW245173   1.009   3.242   4.268 -0.9613 -0.4881  0.6659
14999SOL     OW45174   7.980   4.138   6.978  0.1035  0.6714  0.0849
14999SOL    HW145175   7.970   4.201   6.901 -1.7840  0.6207  0.2259
14999SOL    HW245176   7.894   4.136   7.030  0.4232 -1.3076  0.6095
15000SOL     OW45177   0.960   6.471   1.483 -0.2056 -0.7723  0.7075
15000SOL    HW145178   1.045   6.441   1.440  0.2907  1.8923 -0.3669
15000SOL    HW245179   0.884   6.456   1.420  0.2389  1.3357 -0.4038
15001SOL     OW45180   1.659   5.979   1.493 -0.5246 -0.5093  0.6707
15001SOL    HW145181   1.581   5.919   1.513  0.6025 -2.2589  0.0006
15001SOL    HW245182   1.691   6.020   1.579 -0.9621 -1.3212  1.2402
15002SOL     OW45183   5.687   6.178   7.625  0.0956 -0.2664  0.2933
15002SOL    HW145184   5.605   6.215   7.668  0.8956  1.7785  0.1630
15002SOL    HW245185   5.744   6.253   7.590  0.9526 -1.7102 -1.6178
15003SOL     OW45186   7.681   8.414   7.673 -0.5927  0.4096  0.3142
15003SOL    HW145187   7.597   8.465   7.691  0.0382  1.9082 -0.8461
15003SOL    HW245188   7.687   8.394   7.576  0.1533 -0.1665  0.4741
15004SOL     OW45189   3.016   7.478   1.964  0.3585  0.4804 -0.1771
15004SOL    HW145190   2.993   7.436   1.877  1.7994 -2.4882  0.7557
15004SOL    HW245191   2.962   7.437   2.037 -0.3783  2.4781  0.4903
15005SOL     OW45192   3.798   5.745   2.651 -0.2987  0.5108  0.1552
15005SOL    HW145193   3.895   5.731   2.634 -0.2468 -0.2154  0.9337
15005SOL    HW245194   3.745   5.680   2.596 -0.3149  0.5298  0.1486
15006SOL     OW45195   7.826   8.337   2.608  0.5677 -0.1311 -0.7928
15006SOL    HW145196   7.886   8.414   2.629 -1.7369  1.4086  0.6691
15006SOL    HW245197   7.768   8.360   2.530 -1.7034  0.6864  1.0124
15007SOL     OW45198   4.665   3.233   6.878 -0.6697 -0.1032 -0.0393
15007SOL    HW145199   4.629   3.195   6.793 -0.5870 -0.6509  0.1669
15007SOL    HW245200   4.592   3.281   6.927 -0.9507 -0.5980  0.0344
15008SOL     OW45201   8.144   3.823   7.392 -0.0659 -0.9227 -0.3691
15008SOL    HW145202   8.152   3.811   7.491  0.4362  1.9131  0.0204
15008SOL    HW245203   8.219   3.775   7.347  2.5126  1.4559  1.0492
15009SOL     OW45204   5.240   0.892   4.044 -0.0644 -0.4250  0.3159
15009SOL    HW145205   5.155   0.840   4.035 -0.1144 -0.5741  1.4056
15009SOL    HW245206   5.314   0.830   4.071  0.1716 -0.1458  0.3127
15010SOL     OW45207   4.422   0.671   6.660 -0.0845  0.1683  0.3565
15010SOL    HW145208   4.426   0.589   6.603 -0.8857 -1.7415  2.8664
15010SOL    HW245209   4.332   0.713   6.652 -0.3888 -0.4229  0.6107
15011SOL     OW45210   8.767   7.463   0.893  0.2029  0.9072  0.7571
15011SOL    HW145211   8.774   7.543   0.833 -1.5433 -0.2831 -1.1706
15011SOL    HW245212   8.850   7.408   0.884 -0.1161  0.6219 -0.8363
15012SOL     OW45213   1.968   7.094   7.352 -0.2511 -0.1179 -0.3563
15012SOL    HW145214   2.009   7.127   7.267 -0.1345 -1.5407 -0.8891
15012SOL    HW245215   1.960   6.994   7.348 -0.8451 -0.1481  1.0471
15013SOL     OW45216   0.621   3.186   5.069 -0.3246  0.2451 -0.1935
15013SOL    HW145217   0.568   3.150   4.992 -0.3052 -0.8282  0.2755
15013SOL    HW245218   0.638   3.112   5.134  0.3714  0.9555  0.4379
15014SOL     OW45219   0.957   7.990   8.326  0.7991  0.0197 -0.5698
15014SOL    HW145220   1.011   8.074   8.338  0.7771  0.3926 -2.6568
15014SOL    HW245221   1.017   7.911   8.337  1.1342  0.3436  0.0026
15015SOL     OW45222   7.623   0.643   0.640 -0.1296  0.2025  0.3520
15015SOL    HW145223   7.644   0.638   0.542  1.5110 -0.5862  0.7069
15015SOL    HW245224   7.669   0.723   0.679  2.4050 -1.4987  1.1247
15016SOL     OW45225   2.712   6.626   0.098 -0.0241 -0.3083  0.1815
15016SOL    HW145226   2.672   6.600   0.010 -1.4412 -1.2086  1.0491
15016SOL    HW245227   2.734   6.543   0.150 -0.8675  0.2010  1.3864
15017SOL     OW45228   4.970   2.949   2.919  0.6140  0.0085 -0.4204
15017SOL    HW145229   4.959   2.995   3.007  0.4759 -2.3688  0.8835
15017SOL    HW245230   5.041   2.879   2.927 -0.4029 -1.2240 -1.8039
15018SOL     OW45231   7.022   4.466   1.212 -0.5301 -0.6475  0.4313
15018SOL    HW145232   7.036   4.489   1.308  1.4786  0.7544 -0.1267
15018SOL    HW245233   6.947   4.520   1.175  0.4164  0.8246  0.5894
15019SOL     OW45234   2.506   1.126   3.956 -0.5845 -0.4998  0.1787
15019SOL    HW145235   2.545   1.212   3.989  0.7437 -1.1833  0.4653
15019SOL    HW245236   2.447   1.087   4.027 -3.0505  1.2344 -0.7752
15020SOL     OW45237   6.179   6.070   7.796  0.0816 -0.4551 -0.2842
15020SOL    HW145238   6.080   6.076   7.791  0.2337  3.4982 -2.1330
15020SOL    HW245239   6.215   6.147   7.849  2.2663  0.5661 -3.0348
15021SOL     OW45240   6.131   2.341   3.556 -0.2658 -0.0399  0.7445
15021SOL    HW145241   6.116   2.377   3.464 -0.4537 -0.4904  0.5915
15021SOL    HW245242   6.174   2.250   3.549  1.3260  0.6423  1.1395
15022SOL     OW45243   2.605   3.801   6.550  0.6700  0.1785  0.3548
15022SOL    HW145244   2.515   3.843   6.565 -0.2992 -1.6820  0.0172
15022SOL    HW245245   2.668   3.870   6.513 -1.4308  0.9021 -2.2254
15023SOL     OW45246   0.998   1.318   6.753  0.1245  0.0537  0.8495
15023SOL    HW145247   0.985   1.228   6.711  1.2393  0.2377  0.0417
15023SOL    HW245248   0.911   1.366   6.759 -0.2548 -0.4859 -0.1281
15024SOL     OW45249   1.778   4.772   1.455  0.0091 -0.0517 -0.3010
15024SOL    HW145250   1.695   4.802   1.502 -0.8117 -0.3662 -1.4911
15024SOL    HW245251   1.799   4.677   1.481 -1.1366 -0.6438 -1.4455
15025SOL     OW45252   5.314   1.806   8.228 -0.1489  0.1974  0.2034
15025SOL    HW145253   5.392   1.810   8.165  0.7151  0.5061  1.2717
15025SOL    HW245254   5.239   1.862   8.192  0.2818  0.2762 -0.5971
15026SOL     OW45255   7.148   1.644   5.748  0.2732  0.2212 -0.2313
15026SOL    HW145256   7.182   1.726   5.703 -1.0647  0.7182 -0.3747
15026SOL    HW245257   7.050   1.654   5.766  0.4064 -0.7176  1.1351
15027SOL     OW45258   2.264   7.448   7.161  0.0525  0.2616  0.0122
15027SOL    HW145259   2.260   7.422   7.064  2.3409 -0.8926  0.1621
15027SOL    HW245260   2.186   7.506   7.183 -0.9824 -0.1389 -2.3081
15028SOL     OW45261   0.226   0.874   0.083  0.2777 -0.3585  0.2237
15028SOL    HW145262   0.273   0.919   0.158  2.8662 -0.8631 -1.0073
15028SOL    HW245263   0.127   0.880   0.097  0.6662  0.3638  3.1450
15029SOL     OW45264   0.581   2.656   8.581 -0.2809 -0.0300 -0.4899
15029SOL    HW145265   0.570   2.750   8.550 -1.9782  0.1160  0.4809
15029SOL    HW245266   0.503   2.601   8.551  0.4306 -1.0181 -0.5829
15030SOL     OW45267   6.469   4.039   1.257 -0.5041  0.4163  0.3437
15030SOL    HW145268   6.564   4.060   1.235 -0.5871  1.0608  0.5885
15030SOL    HW245269   6.465   3.973   1.331 -0.2351 -0.7766 -0.6627
15031SOL     OW45270   2.650   5.546   8.104  0.2930  0.4447 -0.0668
15031SOL    HW145271   2.730   5.493   8.077  1.6877  1.7878  1.2642
15031SOL    HW245272   2.615   5.597   8.025 -1.2144 -2.4703 -1.4401
15032SOL     OW45273   4.537   7.772   4.787  0.0546 -0.2470 -0.3288
15032SOL    HW145274   4.486   7.688   4.807 -1.0779 -0.0703 -2.2455
15032SOL    HW245275   4.495   7.849   4.834  0.8537 -0.6345  1.1062
15033SOL     OW45276   6.230   6.676   4.883 -0.2092  0.4870 -0.5131
15033SOL    HW145277   6.159   6.649   4.949 -0.2315 -2.1996 -1.5144
15033SOL    HW245278   6.302   6.726   4.930 -1.1675  0.3850  1.1485
15034SOL     OW45279   4.700   7.711   5.813  0.2940  0.2224  0.0441
15034SOL    HW145280   4.653   7.634   5.856  0.3426 -0.6319 -1.3875
15034SOL    HW245281   4.799   7.695   5.815  0.3832  0.8290  0.8160
15035SOL     OW45282   6.825   0.022   6.887  0.0206 -0.0662 -0.2282
15035SOL    HW145283   6.884  -0.014   6.814  0.6256  1.6495 -0.6183
15035SOL    HW245284   6.771  -0.053   6.925 -0.5022 -0.9804 -2.5860
15036SOL     OW45285   4.027   3.891   7.534  0.2400  0.2337 -0.7163
15036SOL    HW145286   4.017   3.909   7.436 -2.5282 -0.8478 -0.7220
15036SOL    HW245287   4.092   3.817   7.548  0.5011  0.2526 -1.7529
15037SOL     OW45288   7.906   4.466   1.132  0.0098 -0.1245  0.1257
15037SOL    HW145289   7.829   4.487   1.072 -0.4005 -1.0703  0.2921
15037SOL    HW245290   7.990   4.456   1.078  0.1534  1.5060  0.0091
15038SOL     OW45291   7.931   7.524   8.533  0.2186  0.3409  0.1952
15038SOL    HW145292   7.909   7.609   8.579  1.3360  1.9816 -2.0833
15038SOL    HW245293   7.882   7.519   8.446  1.0881 -0.7384 -0.2695
15039SOL     OW45294   1.839   2.431   4.342  0.4074 -0.6005 -0.1341
15039SOL    HW145295   1.774   2.475   4.405 -0.3001 -2.3671  0.4404
15039SOL    HW245296   1.792   2.406   4.258  0.5209 -1.1770 -0.0316
15040SOL     OW45297   0.971   6.687   7.754 -0.0848  0.0275  0.2776
15040SOL    HW145298   0.900   6.722   7.693 -0.2166 -1.6579 -0.5808
15040SOL    HW245299   0.933   6.616   7.813  1.4166 -3.1288 -2.2691
15041SOL     OW45300   6.279   4.077   0.500  0.3518  0.1477  0.3400
15041SOL    HW145301   6.199   4.137   0.491  0.0107 -0.1477  1.2403
15041SOL    HW245302   6.277   4.008   0.428 -0.9166 -0.6466  1.0869
15042SOL     OW45303   2.882   5.486   2.306  0.3393 -0.2806  0.5320
15042SOL    HW145304   2.793   5.488   2.350  0.8940  2.0949  1.7184
15042SOL    HW245305   2.872   5.505   2.208 -0.4156  0.9525  0.8271
15043SOL     OW45306   7.870   0.690   7.381 -0.0846  0.1319 -0.4428
15043SOL    HW145307   7.942   0.754   7.355 -0.3166  0.3746 -0.4872
15043SOL    HW245308   7.840   0.639   7.301 -0.8133  0.8937 -0.6690
15044SOL     OW45309   4.690   6.654   4.110  0.5866 -0.3731  0.0309
15044SOL    HW145310   4.655   6.687   4.198  2.0865  0.4835  0.3575
15044SOL    HW245311   4.637   6.694   4.036  1.9854  2.5344  0.4365
15045SOL     OW45312   7.885   5.389   3.402  0.0087 -0.1818 -0.2122
15045SOL    HW145313   7.800   5.336   3.389 -0.8128  0.9074  0.5184
15045SOL    HW245314   7.913   5.384   3.498  1.3390 -1.3221 -0.6312
15046SOL     OW45315   7.175   0.556   8.336  0.0998 -0.3668 -0.1469
15046SOL    HW145316   7.169   0.518   8.244  1.6144 -1.7009  0.2608
15046SOL    HW245317   7.261   0.606   8.346 -0.4369  0.4887  0.3095
15047SOL     OW45318   5.342   1.564   5.676 -0.0377 -0.1145 -0.5035
15047SOL    HW145319   5.427   1.523   5.643  0.7938  0.8583  0.3594
15047SOL    HW245320   5.357   1.660   5.698 -1.4194  0.1291 -0.5052
15048SOL     OW45321   7.470   6.874   5.677  0.1111  0.0229  0.4029
15048SOL    HW145322   7.542   6.870   5.746  1.5346  1.3299 -0.9391
15048SOL    HW245323   7.397   6.934   5.708  0.5107  0.2248  0.9594
15049SOL     OW45324   3.448   0.001   2.619  0.0433 -0.0532  0.1016
15049SOL    HW145325   3.460  -0.065   2.693  0.2217 -0.3880 -0.2231
15049SOL    HW245326   3.381   0.069   2.646  0.8958  0.4481  0.9923
15050SOL     OW45327   3.180   0.953   8.183 -0.5288 -0.3873  0.2323
15050SOL    HW145328   3.185   1.053   8.182  1.9225 -0.4462 -0.1034
15050SOL    HW245329   3.241   0.917   8.254  0.6213 -1.6516 -1.3097
15051SOL     OW45330   5.045   8.580   6.262  0.0500 -0.1364 -0.2413
15051SOL    HW145331   5.068   8.536   6.349 -2.0581  1.0299  0.9986
15051SOL    HW245332   5.093   8.668   6.256 -0.0948 -0.0454 -0.0775
15052SOL     OW45333   1.480   5.361   0.032 -0.0393  0.7534 -0.2492
15052SOL    HW145334   1.442   5.419   0.104  1.1590  1.0772  0.1597
15052SOL    HW245335   1.520   5.419  -0.039  0.1069  0.4326 -0.4270
15053SOL     OW45336   4.188   7.461   7.418  0.6411 -0.1898  0.4000
15053SOL    HW145337   4.280   7.465   7.380  0.5271 -0.8655  0.0323
15053SOL    HW245338   4.132   7.400   7.362  0.0916 -0.1267  0.8740
15054SOL     OW45339   2.880   7.842   2.301 -0.1675 -0.0240 -0.1307
15054SOL    HW145340   2.915   7.854   2.208  0.1709 -1.3605 -0.1941
15054SOL    HW245341   2.790   7.885   2.308  0.2414  0.9811 -0.7754
15055SOL     OW45342   3.793   5.868   0.902 -0.4163  0.1193  0.1273
15055SOL    HW145343   3.890   5.881   0.882 -0.1867 -0.6858  0.6488
15055SOL    HW245344   3.784   5.809   0.983 -1.3360 -0.1250 -0.1498
15056SOL     OW45345   4.006   1.483   4.622  0.1115  0.2861 -0.1668
15056SOL    HW145346   4.050   1.398   4.651 -0.5887  0.0151  0.1407
15056SOL    HW245347   3.930   1.503   4.684  1.6560  2.3693  1.1995
15057SOL     OW45348   8.163   7.578   7.206  0.0131 -0.5869 -0.0818
15057SOL    HW145349   8.065   7.593   7.224  0.0275 -0.1511 -0.3563
15057SOL    HW245350   8.195   7.501   7.261 -0.4477 -0.6318  0.1334
15058SOL     OW45351   0.110   5.306   8.163  0.0089 -0.4299  0.2307
15058SOL    HW145352   0.166   5.244   8.108  0.1666 -1.5542  1.6014
15058SOL    HW245353   0.134   5.401   8.141 -0.8104 -0.7659 -2.5066
15059SOL     OW45354   1.797   3.150   6.360  0.0530 -0.7959 -0.9730
15059SOL    HW145355   1.797   3.169   6.262 -3.6870  2.1681 -0.6589
15059SOL    HW245356   1.721   3.089   6.382 -0.0150 -0.3096  0.2055
15060SOL     OW45357   3.966   2.082   3.420 -0.6721 -0.0699 -0.1318
15060SOL    HW145358   3.979   2.169   3.372 -1.2648 -0.2931 -0.7287
15060SOL    HW245359   3.878   2.042   3.392 -1.3235  0.0652  1.5912
15061SOL     OW45360   4.701   2.075   4.704  0.0933 -0.0404 -0.2492
15061SOL    HW145361   4.791   2.059   4.744  0.0996 -0.4812 -0.4466
15061SOL    HW245362   4.636   2.007   4.738 -0.2486  0.4802  0.1602
15062SOL     OW45363   7.301   4.410   7.552  0.1588  0.4516  0.1714
15062SOL    HW145364   7.351   4.333   7.591  0.6914  0.8125  0.2281
15062SOL    HW245365   7.204   4.387   7.543  0.4714 -0.5906 -0.7693
15063SOL     OW45366   6.470   7.309   6.407  0.0844  0.1134 -0.0634
15063SOL    HW145367   6.404   7.334   6.336  1.5163  1.7116 -0.8946
15063SOL    HW245368   6.553   7.273   6.365  1.5529  2.4684  0.6256
15064SOL     OW45369   5.370   0.577   7.046  0.3119  0.3311  0.2203
15064SOL    HW145370   5.342   0.578   7.142 -1.0135 -0.7793 -0.1210
15064SOL    HW245371   5.291   0.597   6.988  0.7431 -0.5457 -0.6980
15065SOL     OW45372   3.371   8.067   0.153 -0.1309 -0.1779  0.3799
15065SOL    HW145373   3.282   8.061   0.196 -0.5915  0.1880 -0.4963
15065SOL    HW245374   3.371   8.013   0.069  0.0005  0.9890 -0.3955
15066SOL     OW45375   6.285   1.712   3.713  0.4638  0.0288  0.1208
15066SOL    HW145376   6.278   1.612   3.703  0.0707 -0.3321  3.0942
15066SOL    HW245377   6.195   1.749   3.738  0.8706  0.9604  0.2358
15067SOL     OW45378   5.974   5.377   6.866 -0.0350 -0.1399 -0.1359
15067SOL    HW145379   5.948   5.397   6.771 -1.9878  0.7519  0.5411
15067SOL    HW245380   5.988   5.462   6.916 -1.7256 -0.5142  1.0565
15068SOL     OW45381   1.826   0.036   2.742  0.0941  0.0439 -0.5264
15068SOL    HW145382   1.757   0.043   2.815 -0.2002  0.4156 -0.8300
15068SOL    HW245383   1.917   0.045   2.781 -0.0647  0.2836 -0.2054
15069SOL     OW45384   3.158   6.476   4.173 -0.6974  0.0657  0.2364
15069SOL    HW145385   3.195   6.398   4.123 -1.3457  1.2366 -2.2259
15069SOL    HW245386   3.203   6.484   4.262  1.5395 -1.3105 -0.7043
15070SOL     OW45387   0.014   3.428   3.258  0.1196  0.2507  1.2013
15070SOL    HW145388   0.038   3.476   3.342  0.6626  0.1946  1.0844
15070SOL    HW245389   0.037   3.331   3.267 -1.2166 -0.0648  1.5352
15071SOL     OW45390   4.400   6.016   7.319  0.0962 -0.1810 -0.0819
15071SOL    HW145391   4.495   6.044   7.303 -0.0443 -0.8177 -2.3574
15071SOL    HW245392   4.396   5.956   7.399  1.6774 -0.5290 -0.2273
15072SOL     OW45393   6.504   6.242   4.956  0.0555 -0.0600 -0.0578
15072SOL    HW145394   6.576   6.216   5.019  1.6360  0.5666 -1.5320
15072SOL    HW245395   6.451   6.162   4.930  0.0955 -0.4983  1.1738
15073SOL     OW45396   8.606   1.574   7.514 -0.3948 -0.0949  0.4588
15073SOL    HW145397   8.626   1.484   7.554  1.0393 -0.9247 -1.9175
15073SOL    HW245398   8.543   1.563   7.438  1.2501  0.5871 -1.0717
15074SOL     OW45399   6.428   0.881   1.747  0.5509  0.9852  0.0849
15074SOL    HW145400   6.450   0.968   1.790  0.1827  1.0377  0.1649
15074SOL    HW245401   6.436   0.889   1.648 -0.7974  1.4873 -0.0005
15075SOL     OW45402   1.033   2.085   6.679  0.9469 -0.0541 -0.4285
15075SOL    HW145403   1.018   2.124   6.589 -1.4745 -2.5608 -1.2766
15075SOL    HW245404   1.116   2.030   6.679  0.8760 -0.1598 -1.1942
15076SOL     OW45405   5.581   7.781   1.404 -1.1193 -0.2605 -0.5885
15076SOL    HW145406   5.603   7.760   1.309  1.0232 -0.1479 -0.1715
15076SOL    HW245407   5.621   7.869   1.429  0.3051 -1.2920  1.0010
15077SOL     OW45408   3.497   4.002   5.844  0.0679 -0.2439  0.0102
15077SOL    HW145409   3.592   3.986   5.818  0.9804  0.5808  2.5600
15077SOL    HW245410   3.438   3.934   5.800  2.1953 -2.6068  0.6363
15078SOL     OW45411   0.714   0.503   5.101  0.4239  0.2598 -0.3335
15078SOL    HW145412   0.735   0.406   5.119 -0.7517  0.0075 -0.2457
15078SOL    HW245413   0.618   0.520   5.120  0.3817  1.2203 -1.3236
15079SOL     OW45414   5.771   0.851   7.072 -0.0338 -0.1481 -0.2910
15079SOL    HW145415   5.684   0.842   7.024 -0.6070 -1.3026  0.9104
15079SOL    HW245416   5.755   0.880   7.166  0.6390 -2.4754  0.6160
15080SOL     OW45417   2.585   0.249   1.695  0.4581  0.3109 -0.1638
15080SOL    HW145418   2.488   0.256   1.672  0.4412  0.3007 -0.0930
15080SOL    HW245419   2.611   0.326   1.753  0.0240 -0.7724  1.5224
15081SOL     OW45420   6.844   3.715   1.292 -0.5794  0.3177  0.1389
15081SOL    HW145421   6.804   3.637   1.340 -1.9877  1.6135  1.1681
15081SOL    HW245422   6.898   3.769   1.357  0.9508 -0.1161 -0.7187
15082SOL     OW45423   5.106   4.258   5.872 -0.6881 -0.4594 -0.6113
15082SOL    HW145424   5.011   4.290   5.870 -0.5433  0.0590  0.2681
15082SOL    HW245425   5.166   4.332   5.841 -0.3947 -0.0302  0.9405
15083SOL     OW45426   5.892   2.099   2.257  0.2875 -0.2665 -0.5619
15083SOL    HW145427   5.855   2.027   2.316 -0.7281 -0.2895 -1.2031
15083SOL    HW245428   5.884   2.188   2.302  0.7399 -0.4374 -0.1325
15084SOL     OW45429   3.622   3.677   0.389  0.3658  0.1334  0.2470
15084SOL    HW145430   3.562   3.753   0.364 -0.2282  0.0069  1.2469
15084SOL    HW245431   3.717   3.700   0.365  0.0651  0.7821 -0.3454
15085SOL     OW45432   6.269   2.582   0.694 -0.1370  0.0697 -0.3682
15085SOL    HW145433   6.180   2.551   0.660 -0.3033  0.0842  0.0545
15085SOL    HW245434   6.333   2.506   0.695 -0.5485 -0.2779  0.6838
15086SOL     OW45435   4.550   1.893   4.890  0.0975  0.2674  0.3632
15086SOL    HW145436   4.484   1.827   4.852  0.5346  0.1556 -0.2308
15086SOL    HW245437   4.638   1.848   4.903  0.0066  0.3575  1.3677
15087SOL     OW45438   2.659   4.523   8.068 -0.4340  0.4728  0.0117
15087SOL    HW145439   2.687   4.619   8.065  1.2587  0.0209  0.4893
15087SOL    HW245440   2.633   4.493   7.976  0.8141  0.9007 -0.5041
15088SOL     OW45441   0.221   8.351   0.705 -0.0165  0.9524 -0.0396
15088SOL    HW145442   0.216   8.370   0.607  2.6095  2.7342  0.0706
15088SOL    HW245443   0.205   8.435   0.757  0.6494  0.4891  0.9523
15089SOL     OW45444   7.375   5.074   6.369 -0.4715 -0.3830  0.1088
15089SOL    HW145445   7.381   4.997   6.434 -1.1772 -0.4534  0.0942
15089SOL    HW245446   7.293   5.128   6.389 -0.5541 -0.2574 -0.5639
15090SOL     OW45447   6.757   3.846   6.205  0.9017 -0.5717  0.0681
15090SOL    HW145448   6.708   3.907   6.268 -2.0673 -0.6196 -2.0141
15090SOL    HW245449   6.742   3.751   6.233 -0.2714 -0.5859 -0.5658
15091SOL     OW45450   2.642   2.979   5.751  0.3840  0.2516 -0.3067
15091SOL    HW145451   2.673   2.884   5.748  0.6366  0.3557 -1.3112
15091SOL    HW245452   2.542   2.981   5.756  0.4250 -0.0636  1.0278
15092SOL     OW45453   4.335   5.138   1.096 -0.2655 -0.1979 -0.8370
15092SOL    HW145454   4.426   5.179   1.095  0.3235 -1.4574 -0.4749
15092SOL    HW245455   4.339   5.046   1.057 -1.3969 -0.2364 -0.8907
15093SOL     OW45456   0.463   7.524   3.031  0.1111 -0.0924  0.4576
15093SOL    HW145457   0.542   7.576   3.062  1.5010 -2.9841  2.2104
15093SOL    HW245458   0.492   7.458   2.961 -0.1613 -2.5023  2.4545
15094SOL     OW45459   5.716   1.378   6.408  0.0577  0.0723  0.3925
15094SOL    HW145460   5.724   1.464   6.458 -0.6712  0.1264  0.4254
15094SOL    HW245461   5.754   1.389   6.316 -0.4453  0.5624  0.2383
15095SOL     OW45462   1.780   0.955   4.787 -0.5224 -0.1188 -0.2748
15095SOL    HW145463   1.740   0.898   4.858 -1.8515  0.2794 -0.6640
15095SOL    HW245464   1.869   0.989   4.817  0.0875 -1.9959  0.1464
15096SOL     OW45465   7.191   1.033   7.330 -0.4832 -0.8319 -0.5611
15096SOL    HW145466   7.253   1.087   7.273 -0.4967  0.6820  0.7767
15096SOL    HW245467   7.220   0.937   7.329  0.8156 -0.4604 -1.3413
15097SOL     OW45468   5.376   5.689   2.365  0.4793 -0.1702 -0.4788
15097SOL    HW145469   5.307   5.625   2.331  0.5677 -0.0491 -0.8846
15097SOL    HW245470   5.466   5.645   2.365  0.4184 -0.3053 -0.0125
15098SOL     OW45471   7.489   2.110   5.511  0.2311 -0.4454  0.9378
15098SOL    HW145472   7.459   2.186   5.453 -0.3182 -0.0317  1.7445
15098SOL    HW245473   7.465   2.130   5.606 -1.1964 -2.2495  1.0072
15099SOL     OW45474   4.001   6.806   8.235  0.2183 -0.1986  0.1401
15099SOL    HW145475   4.048   6.846   8.156 -0.3241  1.0046  0.4052
15099SOL    HW245476   3.959   6.719   8.208  1.1189 -0.4365 -0.5432
15100SOL     OW45477   2.131   0.360   5.163  0.1149 -0.3217  1.2960
15100SOL    HW145478   2.055   0.329   5.220  0.4136 -1.0329  1.3188
15100SOL    HW245479   2.120   0.458   5.143 -2.3382 -0.9610 -1.0408
15101SOL     OW45480   3.521   1.539   1.095  0.3313  0.2375  0.1338
15101SOL    HW145481   3.557   1.452   1.060  0.0145  0.6669 -1.2971
15101SOL    HW245482   3.433   1.523   1.140  0.8335 -0.3446  0.9529
15102SOL     OW45483   1.942   0.242   3.919  0.1008 -0.2278 -0.0776
15102SOL    HW145484   1.848   0.259   3.950  0.2361  2.0043 -0.7028
15102SOL    HW245485   1.958   0.291   3.833  1.6929 -0.9753 -0.2326
15103SOL     OW45486   7.433   3.790   3.732  0.4549 -0.6924  0.1848
15103SOL    HW145487   7.340   3.752   3.728  1.0660 -2.5351  1.8828
15103SOL    HW245488   7.493   3.739   3.671  0.4576  0.2696 -0.6426
15104SOL     OW45489   0.959   8.478   1.226  0.3407 -0.1590  0.0098
15104SOL    HW145490   0.988   8.567   1.261 -0.4492  0.8652 -1.7859
15104SOL    HW245491   0.881   8.445   1.280  1.1271 -0.1544  1.1795
15105SOL     OW45492   4.316   0.750   0.909  0.4651  0.2195 -0.1259
15105SOL    HW145493   4.301   0.697   0.992  0.3612 -0.1262 -0.3644
15105SOL    HW245494   4.410   0.784   0.908  0.6330 -0.2390 -0.1316
15106SOL     OW45495   4.329   3.375   3.907 -0.2699  0.2229 -0.5574
15106SOL    HW145496   4.271   3.444   3.950 -2.5128  0.1377 -3.1201
15106SOL    HW245497   4.415   3.418   3.878 -0.6216  1.3386 -0.0332
15107SOL     OW45498   7.568   0.871   2.429 -0.1451 -0.1935  0.8399
15107SOL    HW145499   7.661   0.870   2.464  1.4590 -2.8199 -2.7780
15107SOL    HW245500   7.556   0.949   2.367  0.1622 -0.6142  0.2402
15108SOL     OW45501   6.061   5.301   2.208 -0.2663  0.2062 -0.1144
15108SOL    HW145502   5.995   5.317   2.281 -0.2197  1.0784 -0.2596
15108SOL    HW245503   6.025   5.337   2.122  0.1979  0.2610 -0.2866
15109SOL     OW45504   7.339   6.489   6.146  0.0404  0.4637  0.4078
15109SOL    HW145505   7.345   6.584   6.178 -1.1228  0.5252  0.4813
15109SOL    HW245506   7.243   6.463   6.139  0.3422 -0.4330 -0.4601
15110SOL     OW45507   5.607   2.767   5.220 -0.0608 -0.6204  0.1676
15110SOL    HW145508   5.621   2.865   5.203 -1.3470  0.0339  2.5506
15110SOL    HW245509   5.694   2.719   5.208  0.9523  1.0497  0.5144
15111SOL     OW45510   0.989   3.980   6.382  0.0839 -0.1409  0.1529
15111SOL    HW145511   0.911   4.002   6.325 -2.8047 -1.1689  3.3664
15111SOL    HW245512   1.015   3.884   6.368  0.5104  0.0837 -0.6172
15112SOL     OW45513   0.772   7.383   8.372 -0.1953 -0.1217 -0.3448
15112SOL    HW145514   0.772   7.478   8.403  0.0928  0.3399 -1.7005
15112SOL    HW245515   0.693   7.335   8.411 -0.8885  0.9430 -0.4092
15113SOL     OW45516   5.055   6.599   2.681  0.3348  0.5735  0.9827
15113SOL    HW145517   5.033   6.652   2.600  0.8954 -1.2867 -0.4451
15113SOL    HW245518   5.026   6.649   2.763 -3.6122  0.9744 -0.4408
15114SOL     OW45519   2.863   0.023   3.031  0.1705 -0.3267  0.3516
15114SOL    HW145520   2.936  -0.011   3.092 -0.2626 -2.1049 -0.0690
15114SOL    HW245521   2.798  -0.050   3.014 -0.1784  0.3926 -1.5896
15115SOL     OW45522   4.755   3.073   5.430  0.1001  0.2467 -0.0642
15115SOL    HW145523   4.664   3.066   5.470  0.1435  0.4710  0.0762
15115SOL    HW245524   4.773   2.992   5.374 -0.9416  1.0827 -1.6653
15116SOL     OW45525   6.847   1.710   7.132 -0.4116  0.2445  0.3576
15116SOL    HW145526   6.794   1.653   7.195 -1.4137  2.3380  1.5420
15116SOL    HW245527   6.787   1.775   7.087  0.8973  1.6684  0.5579
15117SOL     OW45528   5.916   4.601   2.114  0.2209  0.2762 -0.0934
15117SOL    HW145529   5.900   4.699   2.104 -1.8185 -0.0528 -0.5388
15117SOL    HW245530   5.965   4.567   2.034  1.0799  0.9376  0.1363
15118SOL     OW45531   7.976   1.579   1.313 -0.4908  0.6746 -0.6633
15118SOL    HW145532   7.969   1.555   1.410  0.6349  2.4003 -0.0972
15118SOL    HW245533   8.049   1.525   1.271  0.8161  1.7155  0.1517
15119SOL     OW45534   5.643   4.226   6.835  0.4096  0.0067 -0.4364
15119SOL    HW145535   5.730   4.274   6.824  1.9434 -2.7324 -1.4678
15119SOL    HW245536   5.592   4.229   6.749  0.4252 -0.0145 -0.4467
15120SOL     OW45537   0.087   2.894   8.607  0.0875  0.4710  0.6449
15120SOL    HW145538  -0.008   2.876   8.580  0.5958 -0.9690 -0.2816
15120SOL    HW245539   0.148   2.871   8.532  1.1178  2.9684  0.5975
15121SOL     OW45540   1.767   3.940   8.138 -0.1210 -0.0853  0.0334
15121SOL    HW145541   1.671   3.954   8.165  0.0833  0.5731  0.4575
15121SOL    HW245542   1.788   3.997   8.059 -0.5214 -1.4806 -1.1171
15122SOL     OW45543   6.794   8.070   6.240 -0.0720  0.0848  0.4641
15122SOL    HW145544   6.759   8.101   6.152  0.2954  2.9979  1.2616
15122SOL    HW245545   6.719   8.059   6.304 -0.0920  0.5136  0.5137
15123SOL     OW45546   8.465   4.760   6.735 -0.2646 -0.5387  0.0369
15123SOL    HW145547   8.520   4.739   6.816  0.9191  1.5176 -0.1655
15123SOL    HW245548   8.376   4.794   6.763 -0.0691 -0.3644  0.4580
15124SOL     OW45549   3.602   5.302   0.449 -0.2175 -0.3680 -0.5422
15124SOL    HW145550   3.670   5.277   0.380 -0.4798  0.9135 -1.2955
15124SOL    HW245551   3.646   5.308   0.539  0.1289 -2.0359 -0.5795
15125SOL     OW45552   2.986   0.276   8.480 -0.4030 -0.5538  0.3116
15125SOL    HW145553   2.967   0.372   8.505 -0.8397  0.0820 -2.2174
15125SOL    HW245554   3.074   0.271   8.433 -1.8758 -0.7189 -2.6781
15126SOL     OW45555   1.185   4.651   2.783  0.1710 -0.0739  0.0515
15126SOL    HW145556   1.132   4.732   2.757 -1.0951 -0.9336 -0.1553
15126SOL    HW245557   1.280   4.663   2.755 -0.6857 -0.0960 -3.3213
15127SOL     OW45558   8.518   5.493   6.584  0.3190  0.2047  0.0329
15127SOL    HW145559   8.452   5.433   6.539  0.8647 -0.2196 -0.2129
15127SOL    HW245560   8.526   5.578   6.532 -1.3708  1.0382  1.0487
15128SOL     OW45561   0.235   1.099   4.424 -0.0970 -0.8959  0.3428
15128SOL    HW145562   0.156   1.085   4.363  1.5195 -2.3823 -1.5533
15128SOL    HW245563   0.280   1.186   4.402 -1.5967  0.3829  2.0069
15129SOL     OW45564   1.760   8.046   0.712  0.4647 -0.5500  0.0299
15129SOL    HW145565   1.730   7.951   0.719 -0.9266 -0.3170 -1.8837
15129SOL    HW245566   1.696   8.105   0.760  0.4321 -0.4555 -0.1269
15130SOL     OW45567   5.256   0.367   2.546  0.0619 -0.2077  0.2149
15130SOL    HW145568   5.233   0.461   2.573  1.0465  0.3163 -0.7093
15130SOL    HW245569   5.196   0.338   2.472 -1.5440 -1.0504  1.7721
15131SOL     OW45570   1.798   3.477   5.841 -0.0460  0.2559  0.4793
15131SOL    HW145571   1.788   3.396   5.784 -2.4127  0.8862 -0.0825
15131SOL    HW245572   1.805   3.450   5.937  0.4273 -0.6426  0.2019
15132SOL     OW45573   2.971   7.449   5.352 -0.5601 -0.0088 -0.1971
15132SOL    HW145574   2.973   7.497   5.264 -0.3166  0.7463  0.2169
15132SOL    HW245575   2.964   7.350   5.336 -0.6429  0.1322 -1.0602
15133SOL     OW45576   7.490   4.046   2.023  0.3906 -0.0900 -0.5358
15133SOL    HW145577   7.451   4.131   2.059  0.4807 -0.8836  1.5666
15133SOL    HW245578   7.586   4.060   2.002  0.9016 -0.1278  1.6137
15134SOL     OW45579   5.885   5.383   2.430  0.4250 -0.0134  0.0799
15134SOL    HW145580   5.902   5.307   2.493  0.4680  0.0041  0.0902
15134SOL    HW245581   5.820   5.446   2.471 -0.0501 -0.3388 -0.1685
15135SOL     OW45582   7.931   7.504   6.837  0.1648 -0.1923  0.2430
15135SOL    HW145583   8.005   7.514   6.770 -1.1479  2.4717 -0.9439
15135SOL    HW245584   7.936   7.578   6.903 -1.7932  0.4618 -0.2838
15136SOL     OW45585   0.090   3.871   7.676 -0.6095  0.5845  0.1289
15136SOL    HW145586   0.141   3.795   7.634  0.6365  0.5279  1.6681
15136SOL    HW245587   0.021   3.904   7.611 -1.2870 -1.9325 -0.5451
15137SOL     OW45588   0.075   3.655   2.575 -0.1971  0.4053 -0.0764
15137SOL    HW145589   0.068   3.679   2.478  2.3214  0.4592 -0.3322
15137SOL    HW245590   0.086   3.556   2.583  0.4330  0.4831  0.0669
15138SOL     OW45591   6.860   0.832   4.730  0.8843  0.1070  0.1699
15138SOL    HW145592   6.939   0.776   4.756  0.8872 -0.0861 -0.2557
15138SOL    HW245593   6.799   0.780   4.672 -0.1782 -0.1439  1.4694
15139SOL     OW45594   0.110   3.681   6.929 -0.4476  0.5706  0.3678
15139SOL    HW145595   0.167   3.724   6.860  1.6908 -0.3889  1.4401
15139SOL    HW245596   0.125   3.724   7.018 -2.3877  1.1171  0.4875
15140SOL     OW45597   2.273   2.441   2.571  0.0559 -0.3292  0.0531
15140SOL    HW145598   2.319   2.422   2.658 -0.7306 -0.3863  0.4665
15140SOL    HW245599   2.341   2.450   2.499  0.7448  0.0347  0.7303
15141SOL     OW45600   6.379   1.676   7.770  0.1343  0.2476  0.0183
15141SOL    HW145601   6.371   1.743   7.697  0.3580 -0.6517 -0.8624
15141SOL    HW245602   6.362   1.720   7.859  0.4215  1.4765 -0.5149
15142SOL     OW45603   2.290   5.928   8.324 -0.5654  0.2590 -0.0733
15142SOL    HW145604   2.204   5.937   8.275 -1.9434  0.3440  2.2320
15142SOL    HW245605   2.331   5.839   8.305 -0.8104  0.4462 -1.6379
15143SOL     OW45606   2.593   5.692   7.583 -0.1537 -0.5416 -0.3260
15143SOL    HW145607   2.501   5.718   7.557 -0.7932 -2.3440 -0.0421
15143SOL    HW245608   2.659   5.750   7.536 -1.3832 -0.4668 -2.0457
15144SOL     OW45609   1.174   6.680   4.720 -0.1765 -0.0537 -0.2435
15144SOL    HW145610   1.142   6.687   4.815 -0.6507 -0.3422 -0.3783
15144SOL    HW245611   1.208   6.588   4.703 -1.3837 -0.4262 -0.7416
15145SOL     OW45612   2.645   6.208   1.317  0.1380  0.6844  0.0987
15145SOL    HW145613   2.737   6.171   1.308  0.3855  1.5478 -1.2480
15145SOL    HW245614   2.628   6.230   1.413  0.3740 -1.7950  0.7651
15146SOL     OW45615   8.543   3.105   7.423 -0.0965 -0.1177 -0.1574
15146SOL    HW145616   8.484   3.074   7.348 -0.5097 -0.5943  0.3596
15146SOL    HW245617   8.518   3.057   7.507  0.5397  0.2229  0.2308
15147SOL     OW45618   8.844   5.779   2.589  0.3877 -0.0243  0.2833
15147SOL    HW145619   8.859   5.849   2.659  0.7462 -0.3784  0.5627
15147SOL    HW245620   8.855   5.819   2.498 -2.1797  0.9681  0.3279
15148SOL     OW45621   2.675   0.648   6.891  0.4271  0.0746  0.0125
15148SOL    HW145622   2.621   0.583   6.836  0.7914 -0.1574 -0.0776
15148SOL    HW245623   2.720   0.713   6.829  2.1859 -1.2067 -0.1163
15149SOL     OW45624   1.057   8.200   1.989  0.5657 -0.4587  0.3178
15149SOL    HW145625   1.063   8.207   2.089  1.4885 -0.6963  0.2874
15149SOL    HW245626   1.051   8.292   1.950  0.7883 -0.3384  0.5629
15150SOL     OW45627   8.044   1.535   4.119  0.2807  0.1963 -0.1189
15150SOL    HW145628   8.026   1.502   4.211 -0.0450  0.6182 -0.0259
15150SOL    HW245629   8.063   1.458   4.058 -0.5014 -0.1637  0.0865
15151SOL     OW45630   6.005   0.162   6.472  0.3774 -0.0330 -0.2638
15151SOL    HW145631   6.081   0.115   6.518 -0.1642 -0.6881 -0.0225
15151SOL    HW245632   5.920   0.113   6.491  0.1031 -0.1891 -1.7680
15152SOL     OW45633   4.508   7.709   4.088 -0.8053  0.1529  0.5605
15152SOL    HW145634   4.547   7.620   4.062  0.5683  0.9420 -0.1791
15152SOL    HW245635   4.525   7.726   4.185 -0.2458  0.0154  0.4888
15153SOL     OW45636   7.465   0.415   5.295  0.8494  0.0607 -0.1819
15153SOL    HW145637   7.418   0.466   5.223 -1.3949 -1.3474  0.1658
15153SOL    HW245638   7.499   0.329   5.257 -0.1354 -0.5775  0.3346
15154SOL     OW45639   7.184   3.673   8.835 -0.5062 -0.1163  0.3062
15154SOL    HW145640   7.252   3.662   8.908  0.6690  1.8061 -0.4562
15154SOL    HW245641   7.226   3.652   8.747 -2.1106 -3.1491  0.1357
15155SOL     OW45642   6.303   6.314   8.383  0.5135  0.2074  0.4873
15155SOL    HW145643   6.398   6.343   8.400  0.5991 -0.0001  0.3673
15155SOL    HW245644   6.270   6.261   8.461  0.1587  1.1094  0.9685
15156SOL     OW45645   2.370   1.173   5.695 -0.0799  0.0918 -0.4190
15156SOL    HW145646   2.417   1.086   5.681 -0.7136 -0.3009 -0.1644
15156SOL    HW245647   2.411   1.221   5.772  0.7102  0.3351 -0.9859
15157SOL     OW45648   6.609   6.805   6.279  0.3526  0.3114 -0.3550
15157SOL    HW145649   6.649   6.813   6.370  0.4897 -1.1184 -0.2701
15157SOL    HW245650   6.540   6.877   6.267  0.8661  0.9860  0.5808
15158SOL     OW45651   5.386   7.504   3.940 -0.5650  0.0926  0.2919
15158SOL    HW145652   5.436   7.559   4.007  1.3260 -0.4320 -0.6179
15158SOL    HW245653   5.338   7.565   3.877 -0.1907  0.6463  0.5315
15159SOL     OW45654   7.251   7.000   2.036  0.4650 -0.0454  0.3541
15159SOL    HW145655   7.170   7.048   2.003  0.7845 -0.2573 -0.7896
15159SOL    HW245656   7.241   6.981   2.134  0.1137  1.8592  0.7278
15160SOL     OW45657   0.609   2.878   6.364 -0.2833  0.1914  0.0922
15160SOL    HW145658   0.585   2.906   6.457 -0.7221  0.8615 -0.2090
15160SOL    HW245659   0.683   2.937   6.329  0.2405 -0.3932  0.1978
15161SOL     OW45660   3.082   8.208   2.973 -0.2868 -0.2773  0.4103
15161SOL    HW145661   3.062   8.305   2.983 -1.4977 -0.6176  1.7310
15161SOL    HW245662   3.155   8.195   2.906 -1.1011  1.4181 -0.8759
15162SOL     OW45663   0.090   3.688   5.009  0.3887  0.9006  0.4219
15162SOL    HW145664  -0.001   3.728   5.007  0.7272  1.6459 -0.7469
15162SOL    HW245665   0.157   3.759   5.034  0.7845  0.6458  0.0992
15163SOL     OW45666   3.599   8.283   7.394 -0.1062 -0.3382  0.3532
15163SOL    HW145667   3.671   8.350   7.375  1.1509 -2.2579 -2.3731
15163SOL    HW245668   3.639   8.204   7.441 -1.4550  0.4551  3.0261
15164SOL     OW45669   1.219   1.274   2.511 -0.2446  0.5679 -0.1090
15164SOL    HW145670   1.222   1.314   2.420 -0.8185  0.8966  0.0131
15164SOL    HW245671   1.300   1.217   2.525  1.9644  3.6064  0.5889
15165SOL     OW45672   8.451   4.458   3.907  0.1372  0.1676 -0.0651
15165SOL    HW145673   8.528   4.500   3.955 -0.4438  0.0179  1.0367
15165SOL    HW245674   8.389   4.416   3.974  0.1015 -1.4468 -1.0554
15166SOL     OW45675   3.694   0.683   3.575 -0.0776  0.0864 -0.2005
15166SOL    HW145676   3.634   0.703   3.653 -0.1934 -1.5882  0.1735
15166SOL    HW245677   3.640   0.644   3.501  0.4984 -1.2515  0.0642
15167SOL     OW45678   4.248   6.359   7.187  0.1551  0.2682  0.4976
15167SOL    HW145679   4.272   6.271   7.147 -1.0561  0.5030 -0.8098
15167SOL    HW245680   4.153   6.358   7.215  0.4268  0.8183  1.4763
15168SOL     OW45681   4.032   5.888   3.084  0.0577  0.2476 -0.0108
15168SOL    HW145682   3.958   5.850   3.029 -0.9003  0.3176  1.1855
15168SOL    HW245683   4.081   5.815   3.130 -0.7222  0.3184  0.9697
15169SOL     OW45684   3.199   6.195   6.903 -0.0742  0.0847 -0.5890
15169SOL    HW145685   3.133   6.119   6.900 -1.3296  0.7706  3.6375
15169SOL    HW245686   3.292   6.158   6.910 -0.3549 -0.9533 -1.9135
15170SOL     OW45687   3.266   5.564   5.852 -0.4342 -0.2526  0.1821
15170SOL    HW145688   3.307   5.545   5.762  0.7735  0.5129  0.5367
15170SOL    HW245689   3.305   5.502   5.920 -0.1455  0.2236  0.4564
15171SOL     OW45690   8.741   4.417   3.800 -0.0231  0.3658 -0.0038
15171SOL    HW145691   8.829   4.417   3.751  0.2719  2.0818  0.4576
15171SOL    HW245692   8.667   4.413   3.734  0.3824 -1.3510 -0.3931
15172SOL     OW45693   7.124   4.451   0.851 -0.8708 -0.0085  0.0654
15172SOL    HW145694   7.135   4.550   0.863 -2.7526  0.0833  1.3655
15172SOL    HW245695   7.114   4.407   0.940  0.6414 -1.5047 -0.4446
15173SOL     OW45696   4.591   5.970   1.148  0.4127  0.4190  0.6742
15173SOL    HW145697   4.569   5.911   1.070  0.3601  0.6926  0.4800
15173SOL    HW245698   4.690   5.983   1.153  0.3884  0.7513  0.3887
15174SOL     OW45699   4.450   8.700   5.228  0.3606 -0.2866 -0.5836
15174SOL    HW145700   4.473   8.670   5.321 -2.5697  1.5704  0.9181
15174SOL    HW245701   4.371   8.648   5.195  0.2772  0.2648 -1.2761
15175SOL     OW45702   4.968   6.587   0.645  0.1818  0.1911  0.5777
15175SOL    HW145703   5.067   6.582   0.648  0.1203 -2.0082  0.1397
15175SOL    HW245704   4.928   6.525   0.712 -0.9006  0.6600  0.3992
15176SOL     OW45705   6.229   1.851   8.786 -0.0004 -0.1008  0.7568
15176SOL    HW145706   6.207   1.754   8.801 -0.6692  0.1227  1.2065
15176SOL    HW245707   6.176   1.908   8.848 -0.0940  0.6025  0.0456
15177SOL     OW45708   7.702   6.382   6.814 -0.4033 -0.5929 -0.7929
15177SOL    HW145709   7.789   6.429   6.799 -0.2726  0.1746  1.7806
15177SOL    HW245710   7.630   6.448   6.832 -0.6278 -1.2481  0.9810
15178SOL     OW45711   5.083   0.890   4.503  0.9426 -0.5743 -0.2352
15178SOL    HW145712   5.088   0.845   4.413  1.0264  1.0652 -1.0879
15178SOL    HW245713   4.987   0.908   4.526  1.0291  2.5200 -1.8839
15179SOL     OW45714   1.596   3.643   3.384 -0.4132  0.2070  0.6015
15179SOL    HW145715   1.621   3.739   3.373  1.8013 -0.1362  2.0924
15179SOL    HW245716   1.637   3.589   3.310 -0.2843  0.1928  0.6837
15180SOL     OW45717   5.594   1.912   3.311  0.2304 -0.6375 -0.4505
15180SOL    HW145718   5.544   1.920   3.225  0.4056  0.3937 -0.4686
15180SOL    HW245719   5.670   1.977   3.313 -0.3475  0.0455  0.8597
15181SOL     OW45720   6.293   7.189   0.289 -0.2514 -0.5039 -0.7454
15181SOL    HW145721   6.264   7.221   0.198  1.5776 -1.5355 -1.7531
15181SOL    HW245722   6.347   7.259   0.334 -0.6575 -0.2192 -0.6912
15182SOL     OW45723   5.258   1.942   3.764 -0.4691 -0.2101 -0.2867
15182SOL    HW145724   5.216   1.856   3.736 -0.0880 -0.3903 -0.3035
15182SOL    HW245725   5.252   2.008   3.688 -1.2417 -0.0384 -0.0929
15183SOL     OW45726   2.646   7.224   5.690  0.1097 -0.0003  0.0606
15183SOL    HW145727   2.621   7.172   5.608 -0.8688 -1.4336  1.1964
15183SOL    HW245728   2.742   7.207   5.712 -0.1830 -1.3968  0.3975
15184SOL     OW45729   5.588   7.343   8.152  0.1208  0.0849  0.4020
15184SOL    HW145730   5.511   7.316   8.209 -0.2046  0.5464  0.1805
15184SOL    HW245731   5.555   7.390   8.070  0.6162 -0.0258  0.1323
15185SOL     OW45732   6.155   0.761   0.776  0.0060 -0.8646  0.1549
15185SOL    HW145733   6.060   0.780   0.799  0.1864 -0.7604  0.8377
15185SOL    HW245734   6.206   0.846   0.769  0.4166 -0.9800  1.4641
15186SOL     OW45735   7.188   1.560   8.220  0.2280  0.4553  0.7755
15186SOL    HW145736   7.107   1.607   8.185  0.4398 -0.3202 -0.8154
15186SOL    HW245737   7.237   1.621   8.282 -0.2773  1.8107 -0.1125
15187SOL     OW45738   3.063   8.625   6.240 -0.2497 -0.7597  0.5590
15187SOL    HW145739   3.009   8.545   6.213 -0.7358 -0.5756  0.9641
15187SOL    HW245740   3.159   8.610   6.216 -0.0653 -2.1190  1.9520
15188SOL     OW45741   0.771   4.977   2.352  0.8448  0.2120  0.3491
15188SOL    HW145742   0.807   4.925   2.430  2.4340  0.8884  0.1108
15188SOL    HW245743   0.798   5.073   2.361 -1.6925  0.9774  0.5711
15189SOL     OW45744   1.931   5.981   1.397 -0.1852  0.1405  0.0141
15189SOL    HW145745   1.952   6.066   1.348  0.5942 -1.0195 -1.7881
15189SOL    HW245746   1.835   5.983   1.427  0.1819  2.1753  1.2063
15190SOL     OW45747   0.316   7.024   1.296  0.2179 -0.2526  0.2186
15190SOL    HW145748   0.218   7.042   1.298  0.1464 -0.6829  0.5396
15190SOL    HW245749   0.364   7.095   1.347 -0.0545 -0.8848  1.3706
15191SOL     OW45750   2.043   8.412   3.579  0.7156  0.4455 -0.1859
15191SOL    HW145751   2.061   8.388   3.483  0.9505 -1.6323  0.3222
15191SOL    HW245752   2.063   8.509   3.594  1.5200  0.5985 -2.0285
15192SOL     OW45753   1.668   8.517   7.664 -0.2371  0.5100  0.2198
15192SOL    HW145754   1.679   8.445   7.733 -1.2669  0.5403  0.4295
15192SOL    HW245755   1.718   8.490   7.581  0.1035 -0.0367  0.5897
15193SOL     OW45756   1.769   1.659   7.909  0.2212 -0.8609 -0.5602
15193SOL    HW145757   1.842   1.595   7.935  0.8940 -0.1981 -0.8029
15193SOL    HW245758   1.738   1.709   7.990 -0.0942 -1.2705 -0.4245
15194SOL     OW45759   7.169   1.764   1.810  0.2381 -0.6696  0.0350
15194SOL    HW145760   7.133   1.717   1.728  0.3192  0.0065 -0.3940
15194SOL    HW245761   7.101   1.830   1.843  0.5389 -0.3579  0.0285
15195SOL     OW45762   6.415   2.805   0.612  0.2535  0.1370 -0.5412
15195SOL    HW145763   6.358   2.727   0.638 -0.9080  1.0415 -0.2597
15195SOL    HW245764   6.383   2.843   0.525  0.6697  0.4261 -0.5731
15196SOL     OW45765   7.280   5.986   6.565  0.0235 -0.2970  0.1659
15196SOL    HW145766   7.243   5.929   6.492 -1.3506  0.4593  0.2355
15196SOL    HW245767   7.341   6.054   6.526 -0.3990 -0.1461 -0.2403
15197SOL     OW45768   7.268   4.639   7.726 -0.5422 -0.5219  0.2471
15197SOL    HW145769   7.347   4.690   7.760 -1.2480  2.4112 -2.0470
15197SOL    HW245770   7.296   4.581   7.650 -0.5760  0.9658 -0.9578
15198SOL     OW45771   6.600   0.377   6.705  0.0598  0.2069  0.2741
15198SOL    HW145772   6.615   0.310   6.778  0.2111 -0.4188 -0.3179
15198SOL    HW245773   6.667   0.450   6.713  0.5971 -0.2765  0.2875
15199SOL     OW45774   8.007   8.566   1.728  0.0711  0.1877 -0.2859
15199SOL    HW145775   8.049   8.490   1.778  1.4536  0.0278 -1.6181
15199SOL    HW245776   8.038   8.564   1.633 -2.9512  0.0791 -1.3928
15200SOL     OW45777   0.711   8.360   1.254 -0.2290  0.2640  0.4068
15200SOL    HW145778   0.681   8.283   1.310  0.9304 -1.3545 -1.0887
15200SOL    HW245779   0.661   8.360   1.168  2.3215 -1.1769 -1.2068
15201SOL     OW45780   8.060   4.910   6.744  0.3183 -0.1860 -0.2221
15201SOL    HW145781   7.974   4.895   6.792  1.4248 -0.3973  1.8110
15201SOL    HW245782   8.136   4.884   6.803  1.7776 -1.2090 -2.4113
15202SOL     OW45783   1.217   5.310   6.803 -0.2083  0.0033 -0.0900
15202SOL    HW145784   1.243   5.397   6.844  1.3033 -1.0107  1.2096
15202SOL    HW245785   1.297   5.265   6.764 -0.9621 -0.8330 -0.7496
15203SOL     OW45786   8.493   1.547   6.006 -0.5776 -0.2385  0.5955
15203SOL    HW145787   8.462   1.537   5.911 -0.4478 -1.2723  0.6513
15203SOL    HW245788   8.588   1.580   6.007  0.1271 -2.1555  0.3042
15204SOL     OW45789   2.413   5.675   8.283 -0.5694  0.4477 -0.0166
15204SOL    HW145790   2.456   5.644   8.198 -1.0355  1.6739 -0.7191
15204SOL    HW245791   2.473   5.654   8.360  0.2597  0.1147 -0.7354
15205SOL     OW45792   3.007   1.996   3.831 -0.7758  0.0766 -0.4312
15205SOL    HW145793   3.094   1.951   3.808 -0.3101  0.4984  0.4366
15205SOL    HW245794   2.979   2.056   3.757  0.0561  0.4928 -0.4152
15206SOL     OW45795   6.276   0.499   0.838 -0.1461  0.3839  0.4157
15206SOL    HW145796   6.234   0.439   0.906  1.0319  0.1726  0.9887
15206SOL    HW245797   6.237   0.591   0.847 -1.3906 -0.0853  0.0549
15207SOL     OW45798   0.785   3.662   6.896  0.4753 -0.2384 -0.5081
15207SOL    HW145799   0.717   3.735   6.897  0.6676  0.0195  2.0536
15207SOL    HW245800   0.875   3.700   6.915  0.5171 -1.1192  1.2969
15208SOL     OW45801   7.718   5.515   0.428 -0.6546  0.3004 -0.4148
15208SOL    HW145802   7.755   5.598   0.469  1.4658 -1.3657  1.3112
15208SOL    HW245803   7.626   5.497   0.465 -1.0463  1.7051 -0.6506
15209SOL     OW45804   5.588   7.941   7.137 -0.0914  0.0454 -0.4472
15209SOL    HW145805   5.586   8.037   7.108  0.2162  0.2316  0.1353
15209SOL    HW245806   5.653   7.891   7.080  1.6027  0.7224  0.8354
15210SOL     OW45807   1.633   8.845   4.689 -0.3389 -0.3100  0.1093
15210SOL    HW145808   1.544   8.880   4.718 -0.1299 -0.6207  1.1830
15210SOL    HW245809   1.623   8.796   4.602 -0.5680  2.6595 -1.6679
15211SOL     OW45810   7.833   7.544   5.673 -0.8877 -0.2053  0.2877
15211SOL    HW145811   7.751   7.600   5.679  1.0010  2.8666 -0.7309
15211SOL    HW245812   7.846   7.512   5.579 -1.0438 -0.9437  0.5075
15212SOL     OW45813   7.931   4.354   3.533  0.1114 -0.4136  0.0162
15212SOL    HW145814   7.841   4.389   3.509  0.3143  0.1862  0.1062
15212SOL    HW245815   7.922   4.272   3.589 -0.3876  0.0318  0.6034
15213SOL     OW45816   2.355   1.550   6.331 -0.2878 -0.2245 -0.0735
15213SOL    HW145817   2.288   1.522   6.262  0.1401  1.1886 -1.1191
15213SOL    HW245818   2.446   1.520   6.304  0.1311  1.7437 -1.0506
15214SOL     OW45819   7.507   3.851   7.948  0.2450  0.1761  0.4528
15214SOL    HW145820   7.542   3.838   8.041  0.9006 -1.8688 -0.0370
15214SOL    HW245821   7.448   3.775   7.924  1.1492 -0.0333 -1.2719
15215SOL     OW45822   4.030   5.126   5.266 -0.0265  0.0423 -0.1137
15215SOL    HW145823   3.984   5.167   5.344  0.4159  0.3197  0.0078
15215SOL    HW245824   3.962   5.090   5.202 -0.4707  1.8242 -0.6961
15216SOL     OW45825   1.586   3.075   2.810 -1.0467  0.3186  0.1546
15216SOL    HW145826   1.664   3.069   2.872 -1.2184  0.0351  0.3458
15216SOL    HW245827   1.617   3.107   2.720 -0.8842  1.2729  0.5404
15217SOL     OW45828   8.575   1.518   0.108 -0.1268 -0.3844  0.1957
15217SOL    HW145829   8.580   1.488   0.012 -1.3268 -0.9717  0.2933
15217SOL    HW245830   8.515   1.597   0.115  1.6784  1.0337  0.1850
15218SOL     OW45831   3.496   4.846   8.576 -0.2082  0.4359  0.2417
15218SOL    HW145832   3.480   4.747   8.576 -0.6632  0.5049 -0.2872
15218SOL    HW245833   3.428   4.891   8.634 -0.2932  0.4825  0.1067
15219SOL     OW45834   1.171   7.395   7.420 -0.1411 -0.6107 -0.5381
15219SOL    HW145835   1.186   7.343   7.336 -0.1977 -0.3999 -0.6787
15219SOL    HW245836   1.113   7.342   7.481 -0.9372 -0.3447 -1.0475
15220SOL     OW45837   7.492   3.087   6.473 -0.0084  0.2659  0.2163
15220SOL    HW145838   7.498   3.164   6.537 -2.5026 -0.6030  1.6241
15220SOL    HW245839   7.407   3.094   6.420 -0.1578 -1.3564  0.1883
15221SOL     OW45840   3.036   3.626   8.743  0.0907  0.0007 -0.0728
15221SOL    HW145841   3.097   3.705   8.754 -1.2734  0.9822  0.6940
15221SOL    HW245842   2.950   3.656   8.702 -0.4602 -1.0812  0.2585
15222SOL     OW45843   4.265   0.279   8.648  0.1996 -0.1595 -0.1304
15222SOL    HW145844   4.357   0.250   8.674  0.8708  2.1425  0.3157
15222SOL    HW245845   4.265   0.310   8.553 -0.3007 -0.8593 -0.3600
15223SOL     OW45846   3.503   1.171   2.535  0.0222 -0.5274 -0.1983
15223SOL    HW145847   3.451   1.088   2.517  1.3049 -1.6463  1.1082
15223SOL    HW245848   3.440   1.250   2.537 -1.0545 -1.2092 -2.7411
15224SOL     OW45849   3.140   8.056   0.282 -0.5637  0.2751  0.0042
15224SOL    HW145850   3.041   8.054   0.269 -0.4929 -0.9857 -0.5150
15224SOL    HW245851   3.168   8.147   0.312 -1.6481  1.2122 -1.6748
15225SOL     OW45852   3.617   5.751   6.350 -0.2866  0.1331 -0.5446
15225SOL    HW145853   3.595   5.674   6.290  2.4587  0.0188 -1.5721
15225SOL    HW245854   3.694   5.802   6.310  1.2847  0.4151  2.5570
15226SOL     OW45855   3.533   3.040   6.319  0.6918  0.4713  0.6428
15226SOL    HW145856   3.527   3.010   6.224  0.3950 -0.7589  1.0338
15226SOL    HW245857   3.583   3.127   6.323  1.3607  0.1691 -0.5502
15227SOL     OW45858   5.410   6.526   6.347 -0.3066 -0.0180  0.3005
15227SOL    HW145859   5.461   6.440   6.341 -1.1119 -0.5184  0.4092
15227SOL    HW245860   5.326   6.511   6.401  0.0567  1.0839  1.2140
15228SOL     OW45861   7.567   6.293   2.207  0.0164 -0.4754 -0.6024
15228SOL    HW145862   7.550   6.196   2.187  0.2350 -0.7018  0.2882
15228SOL    HW245863   7.485   6.346   2.186 -0.7370 -1.1098  0.6494
15229SOL     OW45864   7.196   6.699   5.724 -0.6457  0.1600 -0.2054
15229SOL    HW145865   7.290   6.667   5.728 -0.4673  0.6886 -0.1415
15229SOL    HW245866   7.143   6.640   5.663 -0.7132 -1.2156  1.1198
15230SOL     OW45867   2.539   4.888   2.096 -0.2687 -0.4129  0.0949
15230SOL    HW145868   2.622   4.835   2.116 -0.4920 -1.4022 -1.3825
15230SOL    HW245869   2.539   4.972   2.150  2.0913 -0.0114 -0.3938
15231SOL     OW45870   6.113   1.723   4.832 -0.0982  0.3369  0.4130
15231SOL    HW145871   6.087   1.627   4.829  1.1810  0.0030 -0.3488
15231SOL    HW245872   6.083   1.762   4.919  1.6987 -1.4389  1.9227
15232SOL     OW45873   1.940   2.171   5.135  0.7247  0.6193  0.0112
15232SOL    HW145874   1.858   2.191   5.188  1.1825  0.8379  0.6516
15232SOL    HW245875   1.989   2.256   5.116  0.6565  0.5218 -0.6128
15233SOL     OW45876   5.220   8.136   0.013  0.4682  0.5571 -0.2238
15233SOL    HW145877   5.300   8.091   0.051 -0.2671 -0.5298  0.0920
15233SOL    HW245878   5.167   8.070  -0.040 -0.1846  1.2711 -0.4704
15234SOL     OW45879   1.767   2.582   3.261 -0.0114 -0.3920 -0.1434
15234SOL    HW145880   1.757   2.536   3.349 -1.8834 -1.6929 -0.9625
15234SOL    HW245881   1.743   2.518   3.188  1.2200  0.7439 -1.6003
15235SOL     OW45882   3.267   7.445   6.939  0.0945  0.0680 -0.4281
15235SOL    HW145883   3.320   7.454   6.854  0.8338 -0.6379 -0.0575
15235SOL    HW245884   3.248   7.536   6.976 -0.9740  0.4253 -1.7826
15236SOL     OW45885   1.780   8.233   3.949  0.1509  0.5837  0.3074
15236SOL    HW145886   1.723   8.151   3.956  1.3936 -0.4389 -0.9174
15236SOL    HW245887   1.822   8.251   4.038  1.8478 -1.6734  0.0633
15237SOL     OW45888   5.031   6.023   6.666 -0.1394  0.2812  0.2714
15237SOL    HW145889   5.019   5.976   6.579  2.0289 -0.3409  0.2559
15237SOL    HW245890   5.081   6.109   6.651 -0.5256  0.6076  0.7983
15238SOL     OW45891   6.633   0.702   1.767 -0.0638 -0.1704 -0.1329
15238SOL    HW145892   6.565   0.754   1.714 -1.8927 -1.0128  1.2552
15238SOL    HW245893   6.657   0.619   1.718 -1.8710 -1.0296  0.3508
15239SOL     OW45894   2.900   1.622   6.849 -0.3017 -0.3481 -0.0003
15239SOL    HW145895   2.947   1.600   6.763 -2.0186  1.6971 -1.5933
15239SOL    HW245896   2.922   1.553   6.918  1.1589 -2.0905 -2.0628
15240SOL     OW45897   7.834   1.912   4.809  0.0381  0.0280  0.7216
15240SOL    HW145898   7.904   1.966   4.762  0.7154 -0.8559  0.6803
15240SOL    HW245899   7.870   1.820   4.827 -0.9876 -0.3221  1.0363
15241SOL     OW45900   8.309   8.284   4.683  0.2395  0.4001 -0.3131
15241SOL    HW145901   8.264   8.221   4.746 -1.8047  2.4388  0.4261
15241SOL    HW245902   8.300   8.378   4.717  0.3203  1.4491 -2.9147
15242SOL     OW45903   3.180   4.198   7.589 -0.1631 -0.3854 -0.2702
15242SOL    HW145904   3.086   4.178   7.562 -0.0530 -1.1307 -0.1086
15242SOL    HW245905   3.241   4.180   7.512 -0.0959 -0.3698 -0.2209
15243SOL     OW45906   8.668   2.915   1.667 -0.1195  0.2279  0.2359
15243SOL    HW145907   8.617   2.902   1.582  0.2929 -1.4998  0.2116
15243SOL    HW245908   8.757   2.956   1.645  0.6323 -1.6542 -0.4028
15244SOL     OW45909   4.087   0.296   7.987  0.3213  0.0782  0.2953
15244SOL    HW145910   4.074   0.227   8.059  1.6818  1.3201  1.8182
15244SOL    HW245911   4.090   0.251   7.898 -2.4035 -1.4267  0.8369
15245SOL     OW45912   5.367   6.355   4.780  0.1053  0.0837  0.0509
15245SOL    HW145913   5.407   6.439   4.818  0.4700  0.3087 -0.7966
15245SOL    HW245914   5.439   6.287   4.769 -0.2776 -0.5222  1.1920
15246SOL     OW45915   1.082   6.844   3.149 -0.0934 -0.4657 -0.0055
15246SOL    HW145916   1.070   6.892   3.062  3.2966  1.1624  0.2688
15246SOL    HW245917   1.086   6.746   3.132  0.6744 -0.1763 -1.7727
15247SOL     OW45918   0.093   5.316   2.426  0.2008  0.1925  0.2618
15247SOL    HW145919   0.148   5.296   2.507 -0.9624  1.6515  1.4767
15247SOL    HW245920   0.021   5.247   2.416 -0.9793  1.1259  1.7808
15248SOL     OW45921   3.329   3.034   5.655 -0.0520  0.2293 -0.3099
15248SOL    HW145922   3.331   3.087   5.740 -3.1323 -0.1251  0.1137
15248SOL    HW245923   3.350   3.094   5.578 -0.8455  1.4864  0.4101
15249SOL     OW45924   1.064   6.454   8.802  0.0820  0.3216  0.3540
15249SOL    HW145925   1.082   6.390   8.727 -1.6484  0.1065  0.0795
15249SOL    HW245926   1.071   6.548   8.768 -1.1973  0.2213 -0.2315
15250SOL     OW45927   6.253   4.612   5.107  0.1476 -0.6362 -0.1482
15250SOL    HW145928   6.190   4.556   5.054 -0.1928 -0.8530  0.4726
15250SOL    HW245929   6.282   4.691   5.053 -0.2402 -0.8195 -0.6267
15251SOL     OW45930   6.695   8.157   4.136 -0.1586  0.3294  0.0882
15251SOL    HW145931   6.698   8.240   4.191  0.3527  0.6579 -0.4222
15251SOL    HW245932   6.715   8.078   4.193 -1.5571  0.4425  0.7766
15252SOL     OW45933   8.849   4.462   1.170 -0.4219  0.1054 -0.7893
15252SOL    HW145934   8.793   4.432   1.247 -1.3136  0.6698 -1.2015
15252SOL    HW245935   8.866   4.561   1.178 -1.7819  0.4748 -2.0696
15253SOL     OW45936   3.945   4.520   5.779 -0.0300 -0.2031  0.4340
15253SOL    HW145937   3.933   4.440   5.838  0.6179 -1.4094 -0.9734
15253SOL    HW245938   4.038   4.521   5.743 -0.3611  0.5678 -0.4470
15254SOL     OW45939   2.554   1.289   5.870  0.4574  0.1456  0.0062
15254SOL    HW145940   2.513   1.305   5.959  0.1919 -0.2277 -0.0428
15254SOL    HW245941   2.629   1.223   5.878  1.7273  1.5766  0.2515
15255SOL     OW45942   4.715   4.245   4.906 -0.3381  0.1064  0.6872
15255SOL    HW145943   4.630   4.199   4.930  1.1655 -3.3179 -0.0405
15255SOL    HW245944   4.787   4.218   4.970  1.4038 -1.4167 -1.7419
15256SOL     OW45945   6.695   0.542   2.000  0.8851 -0.3151  0.5924
15256SOL    HW145946   6.795   0.534   2.003  0.8778 -2.0140 -1.2967
15256SOL    HW245947   6.670   0.633   1.969  1.8092  0.3262  1.6340
15257SOL     OW45948   0.165   7.285   0.816  0.1002 -0.1905 -0.0251
15257SOL    HW145949   0.264   7.289   0.805  0.1394  0.9018  0.5696
15257SOL    HW245950   0.141   7.207   0.873  0.8253  0.8395  1.7597
15258SOL     OW45951   3.148   6.213   4.798  0.2338  0.2435 -0.2648
15258SOL    HW145952   3.077   6.275   4.764  0.5879  0.4094 -0.7066
15258SOL    HW245953   3.170   6.145   4.728 -1.3334 -1.4665  0.7835
15259SOL     OW45954   7.698   7.919   8.778 -0.1160  0.0155  0.1864
15259SOL    HW145955   7.606   7.893   8.808 -0.5076  1.5403  0.3832
15259SOL    HW245956   7.693   8.006   8.729  1.3403  0.5972  1.0241
15260SOL     OW45957   1.924   5.795   6.798 -0.2135  0.0095 -0.1493
15260SOL    HW145958   1.864   5.719   6.824 -0.0965 -0.1506 -0.3482
15260SOL    HW245959   2.004   5.798   6.858  0.9503 -1.4332 -1.5599
15261SOL     OW45960   2.603   3.155   2.240  0.3964 -0.5691 -0.6326
15261SOL    HW145961   2.664   3.226   2.276  0.0778 -0.6816  0.1462
15261SOL    HW245962   2.530   3.136   2.306 -0.0578 -0.9698 -1.2279
15262SOL     OW45963   8.758   5.863   4.752 -0.0330 -0.2961 -0.6631
15262SOL    HW145964   8.773   5.772   4.713 -0.9112 -0.7077 -0.0619
15262SOL    HW245965   8.841   5.892   4.800  1.0673  0.2141 -2.7552
15263SOL     OW45966   5.093   7.508   2.693 -0.0808 -0.0040 -0.1067
15263SOL    HW145967   5.083   7.586   2.631 -1.6352  1.4054  1.7894
15263SOL    HW245968   5.009   7.453   2.691  0.2440 -0.5134  0.0189
15264SOL     OW45969   5.365   2.528   6.342  0.0900  0.0570 -0.4919
15264SOL    HW145970   5.339   2.510   6.437  1.1846  0.5740 -0.0822
15264SOL    HW245971   5.431   2.602   6.339 -1.7856  1.7772 -1.8822
15265SOL     OW45972   7.789   2.667   5.598 -0.2560 -0.5300 -0.3961
15265SOL    HW145973   7.848   2.623   5.666 -0.5947 -2.2767 -1.1720
15265SOL    HW245974   7.843   2.730   5.542  0.2820 -0.0315  0.6658
15266SOL     OW45975   7.818   8.093   3.313  0.1400  0.1061 -0.2054
15266SOL    HW145976   7.720   8.073   3.320  0.6062 -2.5411 -0.1552
15266SOL    HW245977   7.857   8.041   3.238  1.2414  2.5919 -1.4710
15267SOL     OW45978   5.811   8.332   6.595 -0.4191  0.2103 -0.4495
15267SOL    HW145979   5.771   8.255   6.644  1.1507  0.4025  1.2610
15267SOL    HW245980   5.796   8.416   6.647  1.3131  0.4161 -0.2017
15268SOL     OW45981   0.495   4.805   3.483  0.6601  0.3816 -0.1212
15268SOL    HW145982   0.403   4.827   3.517  0.8332 -1.6795  1.9296
15268SOL    HW245983   0.562   4.863   3.529  0.5478  0.6434 -0.2822
15269SOL     OW45984   4.555   7.032   0.768 -0.0050  0.6165  0.1722
15269SOL    HW145985   4.519   7.019   0.675 -0.5941  2.2828  0.1196
15269SOL    HW245986   4.478   7.039   0.832  0.3732  0.1878  0.6758
15270SOL     OW45987   4.533   3.402   7.074  0.7522  0.6498 -0.2265
15270SOL    HW145988   4.601   3.406   7.147 -0.3091 -1.7058  0.9882
15270SOL    HW245989   4.516   3.495   7.040  0.8675  1.9419  2.9041
15271SOL     OW45990   4.522   4.804   3.282 -0.3705  0.0901  0.4410
15271SOL    HW145991   4.508   4.881   3.345  1.3431  0.6314  0.2141
15271SOL    HW245992   4.610   4.814   3.237 -2.3014  0.8632 -3.6623
15272SOL     OW45993   0.710   6.362   8.821 -0.3513 -0.2403  0.3462
15272SOL    HW145994   0.788   6.366   8.883 -0.5616  0.9798  0.5563
15272SOL    HW245995   0.669   6.453   8.812 -1.6687 -0.8228  0.1354
15273SOL     OW45996   6.322   1.419   7.982  0.6540 -0.1609 -0.0723
15273SOL    HW145997   6.377   1.412   7.898  0.5825 -0.8621 -0.0704
15273SOL    HW245998   6.360   1.357   8.051  0.2601 -0.1478  0.1560
15274SOL     OW45999   4.197   2.741   7.019  0.1929  0.1153 -0.0877
15274SOL    HW146000   4.132   2.695   6.958 -0.5959 -1.7117  1.9899
15274SOL    HW246001   4.257   2.672   7.060 -0.0585  1.0963  2.0408
15275SOL     OW46002   0.430   7.708   1.442 -0.1911 -0.2789  0.5215
15275SOL    HW146003   0.459   7.690   1.536 -0.2942 -0.1755  0.5726
15275SOL    HW246004   0.413   7.805   1.429 -2.2685 -0.5285  0.9953
15276SOL     OW46005   0.766   5.685   2.578 -0.0003  0.0923  0.4588
15276SOL    HW146006   0.707   5.751   2.531  0.4510 -2.1864 -3.7949
15276SOL    HW246007   0.713   5.639   2.650 -2.0766  1.0724 -0.3626
15277SOL     OW46008   1.050   7.679   0.679 -0.0853  0.7297  0.1216
15277SOL    HW146009   1.131   7.689   0.737 -0.9250 -1.1066  1.7166
15277SOL    HW246010   0.986   7.753   0.697  0.6568  1.4737 -0.2123
15278SOL     OW46011   1.128   3.814   6.773  0.8160  0.1399 -0.3221
15278SOL    HW146012   1.065   3.869   6.718  0.1462 -0.9107 -0.6242
15278SOL    HW246013   1.097   3.814   6.868  2.5520  2.8354  0.3821
15279SOL     OW46014   4.273   1.750   1.514  0.0985 -0.6355  0.5852
15279SOL    HW146015   4.229   1.730   1.602 -0.0607 -0.7598  0.4787
15279SOL    HW246016   4.298   1.846   1.511 -2.0749 -0.0319 -0.1714
15280SOL     OW46017   6.022   2.719   6.823  0.1864  0.2864  0.3961
15280SOL    HW146018   5.997   2.690   6.916  0.4126 -0.0023  0.3672
15280SOL    HW246019   5.940   2.719   6.766  0.0596  0.3901  0.5751
15281SOL     OW46020   1.933   6.197   4.792  0.5637  0.3253  0.2084
15281SOL    HW146021   1.912   6.289   4.826 -1.1130 -0.0668  0.2736
15281SOL    HW246022   1.951   6.202   4.693  2.8423  1.0480  0.5919
15282SOL     OW46023   4.787   6.325   3.855  0.6420  0.0966  0.0632
15282SOL    HW146024   4.851   6.333   3.779 -1.0531  0.3511 -1.4089
15282SOL    HW246025   4.833   6.351   3.940  2.4548  0.2842 -0.9248
15283SOL     OW46026   4.245   5.652   0.680 -0.1032 -0.4078  0.6080
15283SOL    HW146027   4.221   5.609   0.593  0.5487  0.3821  0.0170
15283SOL    HW246028   4.225   5.750   0.676 -0.7127 -0.4829  1.6030
15284SOL     OW46029   1.660   1.040   7.004 -0.2355  0.5079 -0.6696
15284SOL    HW146030   1.590   0.969   7.014 -0.0284  0.4554  0.5892
15284SOL    HW246031   1.628   1.110   6.941 -1.6380  0.7340  0.2494
15285SOL     OW46032   4.277   0.351   7.398 -0.0216  0.1641  0.0213
15285SOL    HW146033   4.368   0.323   7.365 -0.2732  0.2114 -0.7333
15285SOL    HW246034   4.221   0.380   7.320 -0.6305  0.2985  0.5024
15286SOL     OW46035   6.516   3.706   2.284 -0.4994 -0.5911 -0.2781
15286SOL    HW146036   6.598   3.760   2.303 -1.0203  1.0411 -2.2564
15286SOL    HW246037   6.523   3.618   2.330  2.2491 -0.4290 -0.1968
15287SOL     OW46038   6.436   4.484   6.996  0.4277 -0.3705 -0.4028
15287SOL    HW146039   6.519   4.483   7.051 -0.1003 -1.3498  0.4301
15287SOL    HW246040   6.407   4.578   6.979  1.3544 -0.0368 -0.1662
15288SOL     OW46041   0.472   6.126   2.172  0.0602 -0.3956  0.3182
15288SOL    HW146042   0.444   6.192   2.102 -0.0810 -0.7153  0.0708
15288SOL    HW246043   0.477   6.035   2.132 -0.9985 -0.7546  0.9564
15289SOL     OW46044   7.267   7.394   6.064  0.5489  0.3277 -0.3496
15289SOL    HW146045   7.360   7.388   6.027  0.3022  0.3901 -0.9735
15289SOL    HW246046   7.202   7.415   5.991  0.1359  1.0525  0.2118
15290SOL     OW46047   4.316   7.060   4.494 -0.5530 -0.7658 -0.5382
15290SOL    HW146048   4.295   7.093   4.586 -1.0350  0.5957 -1.1105
15290SOL    HW246049   4.415   7.055   4.483 -0.4894 -1.6800  0.2905
15291SOL     OW46050   5.304   8.462   7.539 -0.4721 -0.5347  0.0322
15291SOL    HW146051   5.233   8.404   7.499 -2.1778  2.1830 -1.1738
15291SOL    HW246052   5.271   8.501   7.625 -1.4190  2.2736 -1.4687
15292SOL     OW46053   1.038   4.899   8.461 -0.1563 -0.3727 -0.4206
15292SOL    HW146054   1.125   4.890   8.411 -0.0484 -1.2591 -0.0928
15292SOL    HW246055   0.979   4.822   8.439 -0.4531 -0.3098  0.1382
15293SOL     OW46056   5.523   2.000   4.367 -0.4011  0.6713  0.4453
15293SOL    HW146057   5.617   2.025   4.386 -0.2065  0.4863 -0.2318
15293SOL    HW246058   5.471   2.082   4.342  0.0069  0.5513 -0.8565
15294SOL     OW46059   0.036   8.651   4.154  0.4171 -0.1541 -0.1287
15294SOL    HW146060   0.099   8.728   4.142 -0.6031  0.9119  1.0591
15294SOL    HW246061   0.031   8.626   4.251 -2.5077  1.1966  0.1743
15295SOL     OW46062   7.487   3.972   0.915  0.2662  0.0515  0.4503
15295SOL    HW146063   7.457   3.898   0.975 -0.2196  0.6604  0.9693
15295SOL    HW246064   7.418   4.044   0.913 -0.2872 -0.4705 -1.7902
15296SOL     OW46065   8.411   4.286   7.090 -0.2404  0.7695 -0.0664
15296SOL    HW146066   8.357   4.350   7.143 -0.5350 -0.1789  0.8019
15296SOL    HW246067   8.355   4.207   7.064  0.1255  0.8156 -1.0730
15297SOL     OW46068   1.298   7.382   6.930 -0.4835  0.2479  0.4953
15297SOL    HW146069   1.347   7.446   6.871  2.0721 -1.2725  0.8280
15297SOL    HW246070   1.231   7.331   6.876 -0.5159  1.1764 -0.3562
15298SOL     OW46071   8.532   7.556   5.578  0.3105 -0.5726  0.6485
15298SOL    HW146072   8.540   7.456   5.583  1.9570 -0.6024 -1.3938
15298SOL    HW246073   8.476   7.588   5.655 -1.2139 -3.1448  0.7578
15299SOL     OW46074   4.908   2.406   1.235 -0.2263  0.0416  0.1453
15299SOL    HW146075   4.956   2.476   1.183 -0.2694 -2.0830 -3.0530
15299SOL    HW246076   4.813   2.433   1.248 -0.1361  0.7582 -0.6262
15300SOL     OW46077   7.824   5.790   5.996  0.4973 -0.1334  0.0118
15300SOL    HW146078   7.758   5.866   5.998 -0.3797 -0.8533 -0.7358
15300SOL    HW246079   7.824   5.749   5.905  0.9392 -1.0546  0.4245
15301SOL     OW46080   8.833   0.129   6.326 -0.4529  0.0611 -0.2375
15301SOL    HW146081   8.774   0.195   6.371  0.0132  0.0902  0.3566
15301SOL    HW246082   8.876   0.171   6.246 -0.6317  0.2865 -0.2148
15302SOL     OW46083   6.389   4.438   5.683 -0.5249  0.3406  0.0612
15302SOL    HW146084   6.354   4.398   5.768  0.8364 -0.8283  0.1131
15302SOL    HW246085   6.362   4.534   5.678 -1.9073  0.0352  1.0802
15303SOL     OW46086   3.378   1.462   7.907 -0.3736  0.0557  0.4781
15303SOL    HW146087   3.400   1.550   7.863 -2.0006  0.8230  1.1501
15303SOL    HW246088   3.464   1.417   7.933  0.5732  0.5245 -1.5890
15304SOL     OW46089   1.006   2.178   6.417  0.1825 -0.2765 -0.2566
15304SOL    HW146090   0.960   2.266   6.422  0.6355 -0.0985  1.6389
15304SOL    HW246091   1.084   2.184   6.356 -1.6744 -0.3230 -2.7722
15305SOL     OW46092   4.431   4.015   8.294  0.0039  0.8957 -0.6078
15305SOL    HW146093   4.522   4.000   8.334 -0.3096  2.6874  0.9545
15305SOL    HW246094   4.394   3.929   8.261  0.3953 -0.7720  2.8625
15306SOL     OW46095   5.523   3.415   1.005 -0.0953 -0.5724  0.7256
15306SOL    HW146096   5.440   3.383   0.959  0.6675  1.8575 -2.7718
15306SOL    HW246097   5.600   3.356   0.981  0.1707  0.3097 -0.7032
15307SOL     OW46098   3.155   7.764   5.017 -0.2230  0.4021 -0.0362
15307SOL    HW146099   3.081   7.830   5.001 -0.8834 -0.7188 -2.0859
15307SOL    HW246100   3.225   7.775   4.946  0.4332 -0.0505  0.5324
15308SOL     OW46101   7.801   8.440   6.304 -0.4108 -0.0606  0.5533
15308SOL    HW146102   7.829   8.493   6.384 -2.1609  1.2797  0.3329
15308SOL    HW246103   7.842   8.479   6.222  1.3345 -1.3986  0.7270
15309SOL     OW46104   7.202   6.652   1.552  0.0694 -0.3386  0.0754
15309SOL    HW146105   7.263   6.708   1.607 -1.1293 -0.6115  1.7562
15309SOL    HW246106   7.251   6.572   1.518  0.5175 -0.9343  2.0044
15310SOL     OW46107   4.706   4.326   7.009  0.3692  0.4725  0.2795
15310SOL    HW146108   4.700   4.264   6.931  1.0054  0.7107  0.0347
15310SOL    HW246109   4.662   4.412   6.986  1.3145  0.8599 -0.1481
15311SOL     OW46110   0.694   0.283   1.786 -0.1439  0.3521  0.2048
15311SOL    HW146111   0.642   0.204   1.754  2.6820 -1.7660  0.4904
15311SOL    HW246112   0.720   0.340   1.708  0.3805 -0.7218 -0.4311
15312SOL     OW46113   0.975   7.163   0.759 -0.1850 -0.9453 -0.1399
15312SOL    HW146114   0.963   7.236   0.691 -2.1248 -0.3488  0.7773
15312SOL    HW246115   0.937   7.078   0.722  2.1443 -1.6111 -1.2402
15313SOL     OW46116   2.437   4.083   7.541  0.2674  0.4954  0.4965
15313SOL    HW146117   2.400   4.118   7.456  2.7089 -1.2979 -1.4567
15313SOL    HW246118   2.386   4.121   7.618 -1.7875  2.4947 -1.6954
15314SOL     OW46119   1.356   7.618   6.029  0.3204  0.4916  0.1367
15314SOL    HW146120   1.427   7.623   5.958 -0.2670  0.6680 -0.4492
15314SOL    HW246121   1.332   7.523   6.045  1.3777  0.3524  1.0512
15315SOL     OW46122   4.547   6.048   5.373  0.3194  0.0610 -0.1510
15315SOL    HW146123   4.555   6.143   5.341  0.3626  0.1241  0.0470
15315SOL    HW246124   4.626   5.996   5.340  0.4294  0.1571 -0.0414
15316SOL     OW46125   6.081   1.436   6.639  0.0051  0.6371  0.7282
15316SOL    HW146126   6.101   1.341   6.662 -0.3487  0.2509 -0.5190
15316SOL    HW246127   5.997   1.464   6.686  0.0942  0.3393  1.0788
15317SOL     OW46128   2.786   8.441   1.739  0.6940 -0.3523 -0.3324
15317SOL    HW146129   2.747   8.355   1.707  0.2506  0.3067 -1.6459
15317SOL    HW246130   2.790   8.441   1.839 -0.9315 -1.2001 -0.2292
15318SOL     OW46131   4.279   1.639   6.004  0.0737 -0.0194  0.5181
15318SOL    HW146132   4.291   1.572   6.077 -0.3227 -0.4730  0.1731
15318SOL    HW246133   4.320   1.603   5.920 -1.0539 -0.2914  0.0709
15319SOL     OW46134   0.447   5.447   4.590 -0.6610  0.2804 -0.2300
15319SOL    HW146135   0.499   5.424   4.508 -1.8553  3.9358 -2.2498
15319SOL    HW246136   0.386   5.372   4.613 -1.6145 -0.2507 -3.8796
15320SOL     OW46137   2.459   4.098   6.317  0.2910  0.3116 -0.1724
15320SOL    HW146138   2.378   4.050   6.351 -0.0549  1.6367  0.9820
15320SOL    HW246139   2.468   4.083   6.219 -0.9891 -0.3791 -0.2096
15321SOL     OW46140   6.358   4.150   4.920 -0.1624 -0.1239 -0.2679
15321SOL    HW146141   6.318   4.117   4.834 -0.9963 -0.5017  0.2467
15321SOL    HW246142   6.434   4.091   4.947  1.7317  1.3983 -1.9720
15322SOL     OW46143   3.673   1.972   0.315 -0.1198  0.1212  0.5288
15322SOL    HW146144   3.737   2.023   0.258  0.7545  0.0367  1.3879
15322SOL    HW246145   3.594   1.944   0.261  0.6469  0.0869 -0.6195
15323SOL     OW46146   2.102   7.276   0.725 -0.0120 -0.3661 -0.0063
15323SOL    HW146147   2.184   7.281   0.668 -0.2230 -1.1442 -0.3864
15323SOL    HW246148   2.081   7.367   0.761  0.8999 -0.1274 -0.0647
15324SOL     OW46149   5.454   4.051   4.221 -0.1485  0.0071 -0.0945
15324SOL    HW146150   5.464   3.969   4.165 -0.8577  2.1037 -3.5665
15324SOL    HW246151   5.359   4.061   4.249 -0.1068 -0.2049  0.1299
15325SOL     OW46152   5.440   1.334   7.138  0.7266  0.2956 -0.1875
15325SOL    HW146153   5.387   1.403   7.186  0.8957  0.2575  0.0564
15325SOL    HW246154   5.537   1.359   7.140  0.6880  0.5109 -0.8762
15326SOL     OW46155   5.395   3.043   4.642  0.0889  0.5005 -0.3303
15326SOL    HW146156   5.464   3.112   4.662 -1.0053  1.8604 -1.0959
15326SOL    HW246157   5.304   3.085   4.642 -0.4544 -0.5327 -2.6022
15327SOL     OW46158   4.610   0.896   2.795  0.5005 -0.5287  0.2653
15327SOL    HW146159   4.629   0.873   2.891  0.4773 -0.7768  0.2113
15327SOL    HW246160   4.528   0.954   2.790  0.7607 -0.1415  0.4311
15328SOL     OW46161   3.109   0.025   5.574  0.0410 -1.0723  0.2265
15328SOL    HW146162   3.163   0.039   5.657  0.3633  1.7405 -0.3758
15328SOL    HW246163   3.141  -0.058   5.527  0.6831 -2.0075  2.2325
15329SOL     OW46164   7.094   7.282   3.392  0.7998 -0.3325 -0.9548
15329SOL    HW146165   7.095   7.339   3.309  3.8600 -0.3948 -1.0661
15329SOL    HW246166   7.177   7.227   3.396  0.0482 -1.4372  1.4648
15330SOL     OW46167   4.316   6.558   6.557  0.2175  0.4066  0.2128
15330SOL    HW146168   4.267   6.623   6.499  0.9481 -0.5309 -1.5395
15330SOL    HW246169   4.408   6.544   6.521  0.3378 -1.0177  0.9997
15331SOL     OW46170   7.676   0.191   7.655 -0.0964  0.4783 -0.0263
15331SOL    HW146171   7.706   0.100   7.682 -0.3498  0.4181  0.0459
15331SOL    HW246172   7.625   0.233   7.730  1.1358  1.1909  0.4518
15332SOL     OW46173   0.569   8.011   3.082  0.4533 -0.0453  0.4081
15332SOL    HW146174   0.590   7.929   3.030  0.2128 -0.3846  0.8410
15332SOL    HW246175   0.632   8.085   3.055 -0.6549  0.2776 -1.5189
15333SOL     OW46176   5.530   6.644   0.318  0.0425 -0.5412  0.3069
15333SOL    HW146177   5.570   6.672   0.231  2.4998  1.2292  1.8791
15333SOL    HW246178   5.432   6.663   0.317  0.0586 -0.3286 -1.9641
15334SOL     OW46179   5.747   6.195   1.689  0.5308 -0.0091  0.3684
15334SOL    HW146180   5.660   6.167   1.729  0.3016  0.4550  0.2048
15334SOL    HW246181   5.789   6.117   1.642 -0.4635  0.0826 -0.7320
15335SOL     OW46182   7.555   0.186   1.256  0.2426 -0.7559  0.5684
15335SOL    HW146183   7.609   0.130   1.320  1.1116 -0.8889 -0.2604
15335SOL    HW246184   7.616   0.241   1.200 -0.2616 -2.6723 -2.0642
15336SOL     OW46185   1.530   0.960   1.936 -0.4670  0.2414 -0.1985
15336SOL    HW146186   1.587   0.887   1.972 -1.1616  0.0483  0.5504
15336SOL    HW246187   1.500   0.938   1.843  0.6483  0.3408 -0.5881
15337SOL     OW46188   5.665   4.173   7.123  0.4930 -0.1994 -0.0334
15337SOL    HW146189   5.668   4.252   7.063  0.3286  0.2949  0.5912
15337SOL    HW246190   5.591   4.112   7.095 -0.1164  0.4380  0.1666
15338SOL     OW46191   1.708   7.070   7.449  0.3649  0.2114 -0.0493
15338SOL    HW146192   1.658   7.126   7.383  1.7778  0.1055 -1.2643
15338SOL    HW246193   1.805   7.097   7.448  0.6710 -0.7948  0.9298
15339SOL     OW46194   3.186   6.652   6.315  0.3127 -0.4014 -0.3292
15339SOL    HW146195   3.142   6.563   6.316 -1.0313  0.2307 -0.9294
15339SOL    HW246196   3.155   6.706   6.393 -0.4998  0.2724 -1.0932
15340SOL     OW46197   8.496   4.985   3.084  0.5669  0.3846 -0.0572
15340SOL    HW146198   8.553   5.035   3.018 -0.6368  1.4448 -0.3320
15340SOL    HW246199   8.411   4.956   3.041  0.3673 -0.1396  0.6601
15341SOL     OW46200   3.030   2.636   3.220  0.1877  0.3358 -0.1329
15341SOL    HW146201   2.963   2.658   3.290 -0.3528 -1.8370  0.1044
15341SOL    HW246202   2.985   2.592   3.142  1.1974 -0.4724 -0.2997
15342SOL     OW46203   0.565   3.810   4.881 -0.1611  0.2850  0.4942
15342SOL    HW146204   0.627   3.732   4.872  0.6004  0.8909  0.3144
15342SOL    HW246205   0.534   3.817   4.976  5.4830  3.8416  2.6125
15343SOL     OW46206   5.775   1.927   8.182 -0.0000  0.2400  0.0964
15343SOL    HW146207   5.861   1.913   8.134  0.9275  1.4986  1.2916
15343SOL    HW246208   5.786   1.905   8.278 -0.7735  1.1464  0.4181
15344SOL     OW46209   3.867   2.321   6.357  0.1608 -0.1704  0.0253
15344SOL    HW146210   3.850   2.255   6.284  0.5148 -1.2947  0.9174
15344SOL    HW246211   3.781   2.343   6.403 -0.2361  1.3509 -1.3480
15345SOL     OW46212   6.051   1.896   1.742  0.0584 -0.2524 -0.0112
15345SOL    HW146213   6.137   1.901   1.792 -0.5613 -1.1239  1.1966
15345SOL    HW246214   6.070   1.872   1.647  1.1360 -0.9938  0.3587
15346SOL     OW46215   0.900   8.705   4.999 -0.4424  0.8687 -0.3758
15346SOL    HW146216   0.888   8.652   5.083  0.1539  1.2590 -0.0413
15346SOL    HW246217   0.834   8.674   4.931  1.1303 -1.7202 -0.8798
15347SOL     OW46218   4.710   2.017   0.426 -0.0793  0.0273  0.3455
15347SOL    HW146219   4.632   1.993   0.483 -1.5542  3.8968  0.2058
15347SOL    HW246220   4.680   2.034   0.332  1.5260 -1.4472 -0.5014
15348SOL     OW46221   3.661   5.625   3.661 -0.2396  0.1491 -0.1344
15348SOL    HW146222   3.700   5.705   3.617  0.3689  0.0053  0.1389
15348SOL    HW246223   3.566   5.644   3.687 -0.3224  0.5340 -0.6991
15349SOL     OW46224   8.253   2.283   5.601  0.9670  0.4448  0.0298
15349SOL    HW146225   8.164   2.324   5.582  0.3385 -0.8394  0.0961
15349SOL    HW246226   8.281   2.226   5.523  1.4083  0.2970  0.2924
15350SOL     OW46227   8.124   7.801   4.854  0.2245 -0.1568  0.3853
15350SOL    HW146228   8.032   7.814   4.890  0.5764  0.4109  1.1199
15350SOL    HW246229   8.160   7.714   4.885  0.4525  0.2451  1.2632
15351SOL     OW46230   3.189   0.415   4.029 -0.0141  0.2689 -0.1829
15351SOL    HW146231   3.268   0.425   3.968 -0.6017  0.0104 -0.9975
15351SOL    HW246232   3.158   0.506   4.058  0.5355  0.3735  0.0774
15352SOL     OW46233   5.522   3.104   1.068 -0.2226 -0.5199  0.3744
15352SOL    HW146234   5.436   3.053   1.062 -0.4740 -0.0708  0.1327
15352SOL    HW246235   5.551   3.132   0.976 -1.1112  1.4509  0.6377
15353SOL     OW46236   7.651   6.064   0.420 -0.3840  0.1319  0.1664
15353SOL    HW146237   7.723   6.131   0.402 -1.0641  1.2997  1.6510
15353SOL    HW246238   7.611   6.034   0.333  0.6526  0.8100 -0.5713
15354SOL     OW46239   6.935   5.592   3.037  0.0987 -0.0423 -0.6535
15354SOL    HW146240   6.939   5.650   2.955  0.2631 -1.0093 -1.3506
15354SOL    HW246241   6.968   5.500   3.014 -2.1910 -1.0639 -0.1660
15355SOL     OW46242   3.870   2.891   6.840 -0.2212 -0.0349  0.5364
15355SOL    HW146243   3.910   2.800   6.851  2.9216  1.4072  2.5014
15355SOL    HW246244   3.814   2.912   6.920 -1.9782 -0.6234 -0.4863
15356SOL     OW46245   7.194   7.302   8.541  0.4743 -0.4231 -0.5997
15356SOL    HW146246   7.095   7.299   8.554  0.2137  0.3443 -2.1088
15356SOL    HW246247   7.240   7.266   8.622 -1.0392 -1.1521 -0.0265
15357SOL     OW46248   5.114   6.950   2.470  0.3311 -0.9141 -0.0898
15357SOL    HW146249   5.037   6.967   2.410  0.9431  0.5621 -0.5082
15357SOL    HW246250   5.182   6.895   2.423  1.0425  0.6682 -0.9976
15358SOL     OW46251   3.698   0.120   4.305 -0.0813  0.2404 -0.6316
15358SOL    HW146252   3.792   0.086   4.312  0.1799  1.0613 -0.0905
15358SOL    HW246253   3.645   0.057   4.248  0.4891 -0.8497  0.0127
15359SOL     OW46254   4.668   3.286   0.724 -0.3891  0.7019  0.0852
15359SOL    HW146255   4.715   3.210   0.768  1.5542  1.2795 -0.9021
15359SOL    HW246256   4.677   3.368   0.781  0.5848  1.0200 -0.5099
15360SOL     OW46257   2.594   5.407   4.969 -0.2611  0.1928 -0.0356
15360SOL    HW146258   2.653   5.428   4.892 -1.3382 -0.0362 -0.9440
15360SOL    HW246259   2.647   5.360   5.040  0.9897  1.4063 -0.1286
15361SOL     OW46260   2.383   5.715   1.854  0.4033 -0.7397  0.3174
15361SOL    HW146261   2.383   5.685   1.758 -0.9617  0.0490  0.0347
15361SOL    HW246262   2.467   5.766   1.873 -0.0146  0.4978 -0.9489
15362SOL     OW46263   6.425   2.393   4.726 -0.0893 -0.0373 -1.0156
15362SOL    HW146264   6.481   2.370   4.647  1.8439 -1.6789  0.7026
15362SOL    HW246265   6.365   2.316   4.748 -0.0144  0.0623 -0.4295
15363SOL     OW46266   1.717   2.222   2.018  0.0278  0.1949 -0.2213
15363SOL    HW146267   1.754   2.315   2.022 -3.0329  1.5072  1.9575
15363SOL    HW246268   1.689   2.194   2.110 -2.1828 -1.4909 -1.3292
15364SOL     OW46269   7.012   6.371   3.245 -0.2579 -0.3061  0.1124
15364SOL    HW146270   7.022   6.272   3.236 -1.9305 -0.6049  1.0259
15364SOL    HW246271   6.996   6.394   3.341  0.3379  0.8916 -0.0498
15365SOL     OW46272   8.295   1.337   6.417 -0.4448 -0.1182 -0.1909
15365SOL    HW146273   8.337   1.406   6.357  0.2212 -0.8591 -0.6001
15365SOL    HW246274   8.222   1.380   6.471  1.9236  1.6586  1.8344
15366SOL     OW46275   1.037   6.890   6.632 -0.0036 -0.2451  0.4979
15366SOL    HW146276   1.069   6.933   6.717  1.4986 -1.3500  0.5371
15366SOL    HW246277   0.956   6.938   6.599  1.7448  2.9007  0.3208
15367SOL     OW46278   2.364   3.724   0.268 -0.5031  0.0091  0.1877
15367SOL    HW146279   2.282   3.678   0.303 -0.2300 -2.1525 -1.7416
15367SOL    HW246280   2.365   3.717   0.168  0.2798  3.1552 -0.1172
15368SOL     OW46281   5.808   4.950   6.669  0.2771 -0.5751 -0.5065
15368SOL    HW146282   5.802   4.964   6.768  1.5905  2.5579 -0.7274
15368SOL    HW246283   5.833   4.856   6.650  0.3125 -1.1897  2.1405
15369SOL     OW46284   1.135   7.203   5.158  0.5093 -0.3969 -0.1043
15369SOL    HW146285   1.208   7.195   5.225  1.6359 -0.2023 -1.2685
15369SOL    HW246286   1.050   7.227   5.205  1.3529  0.1932  1.2031
15370SOL     OW46287   0.659   2.247   8.056 -0.1547  0.3287 -0.3164
15370SOL    HW146288   0.716   2.188   7.999 -3.0508 -0.7343 -2.3243
15370SOL    HW246289   0.572   2.265   8.011 -0.9462  3.0704  1.9441
15371SOL     OW46290   4.977   4.027   0.773  0.0025 -0.3125 -0.5402
15371SOL    HW146291   5.061   4.008   0.723 -0.7900 -0.4441 -1.8641
15371SOL    HW246292   4.999   4.078   0.857  1.5177 -1.5221 -0.1609
15372SOL     OW46293   4.717   8.668   0.720 -0.0025 -0.7402 -0.2884
15372SOL    HW146294   4.623   8.636   0.708 -0.0032 -0.6658 -0.5009
15372SOL    HW246295   4.769   8.602   0.773  0.2145 -1.4848 -1.3977
15373SOL     OW46296   2.717   7.422   2.155  0.0186  0.3794 -0.0260
15373SOL    HW146297   2.664   7.340   2.176 -0.0426  0.2247 -0.7728
15373SOL    HW246298   2.733   7.474   2.239 -0.0332 -0.3416  0.4349
15374SOL     OW46299   5.322   8.062   2.774 -0.2230  0.4592 -0.1701
15374SOL    HW146300   5.306   8.138   2.710  0.3893  1.2255  0.5735
15374SOL    HW246301   5.248   7.995   2.764  0.0259  0.3814 -1.9229
15375SOL     OW46302   6.016   6.175   0.958  0.2169 -0.4195 -0.1383
15375SOL    HW146303   6.023   6.242   0.884 -0.8869 -0.6203 -0.4330
15375SOL    HW246304   5.926   6.132   0.956  1.1169 -2.4137 -0.3888
15376SOL     OW46305   1.091   1.781   8.277 -0.2469 -0.7477 -0.2056
15376SOL    HW146306   1.171   1.840   8.270  2.1134 -3.8144 -1.5307
15376SOL    HW246307   1.078   1.753   8.372 -0.5448  0.7000  0.2063
15377SOL     OW46308   8.622   4.577   7.749 -0.1030  0.0287  0.2684
15377SOL    HW146309   8.629   4.553   7.653 -0.0016  0.6027  0.1248
15377SOL    HW246310   8.632   4.496   7.806  1.0280 -0.1420 -0.1615
15378SOL     OW46311   4.768   5.074   5.347  0.5299  0.1319  0.1578
15378SOL    HW146312   4.826   5.128   5.286  1.0848 -0.7446 -0.1221
15378SOL    HW246313   4.814   4.987   5.367 -0.5768 -0.4685  0.1563
15379SOL     OW46314   6.492   5.975   0.893 -0.0451 -0.2700  0.3129
15379SOL    HW146315   6.589   5.971   0.917 -0.0952  0.6676  0.7224
15379SOL    HW246316   6.479   6.041   0.819 -0.4463  0.1235  0.7241
15380SOL     OW46317   8.438   7.168   4.334  0.2577  0.1555 -0.0934
15380SOL    HW146318   8.391   7.104   4.395  0.3372  1.1596  1.0610
15380SOL    HW246319   8.537   7.159   4.345  0.2680  0.5872  0.2180
15381SOL     OW46320   3.113   6.421   5.589 -0.2202  0.1457  0.1617
15381SOL    HW146321   3.086   6.497   5.647 -2.3662  0.1996 -0.7870
15381SOL    HW246322   3.153   6.456   5.504  0.8172  0.1332  0.6375
15382SOL     OW46323   7.547   7.659   4.059 -0.2434 -0.6912 -0.5830
15382SOL    HW146324   7.644   7.651   4.084 -0.0625  1.6609 -0.3578
15382SOL    HW246325   7.511   7.568   4.037  2.4747 -1.4410 -2.4453
15383SOL     OW46326   5.511   7.665   6.879  0.5892 -0.5965  0.1681
15383SOL    HW146327   5.495   7.585   6.937  0.2469 -0.3701  0.3883
15383SOL    HW246328   5.426   7.717   6.870  0.1969 -1.4582 -1.8169
15384SOL     OW46329   4.308   6.196   2.564 -0.3283 -0.1048 -0.3898
15384SOL    HW146330   4.302   6.110   2.615 -2.8955  0.3827  0.2658
15384SOL    HW246331   4.249   6.264   2.606  0.3269  1.4709 -1.9112
15385SOL     OW46332   3.624   3.152   7.530 -0.1368 -0.6458 -0.4458
15385SOL    HW146333   3.711   3.127   7.571 -0.3294  0.0920  0.4240
15385SOL    HW246334   3.593   3.077   7.471  1.8855 -0.2600 -2.1472
15386SOL     OW46335   4.842   3.736   8.324  0.4005  0.4821 -0.0096
15386SOL    HW146336   4.777   3.813   8.327  0.6138  0.7034 -0.7683
15386SOL    HW246337   4.813   3.666   8.388  0.8204  1.6818  1.5527
15387SOL     OW46338   4.238   8.843   0.961 -0.0427  0.0668 -0.2144
15387SOL    HW146339   4.149   8.862   1.004  0.1451  0.1206  0.1570
15387SOL    HW246340   4.275   8.928   0.924 -0.4674 -0.0799 -0.9979
15388SOL     OW46341   4.681   4.355   2.152  0.0144  0.3246 -0.5946
15388SOL    HW146342   4.646   4.416   2.223  0.2014 -0.8196  0.5183
15388SOL    HW246343   4.743   4.289   2.193 -1.0940 -1.3740 -1.5431
15389SOL     OW46344   1.318   4.528   7.400 -0.3614  0.1157  0.4538
15389SOL    HW146345   1.261   4.602   7.434  0.9140  0.7130  1.3570
15389SOL    HW246346   1.391   4.565   7.342 -0.1046 -0.5015  0.3657
15390SOL     OW46347   5.726   1.371   2.318  0.2275 -0.4870  0.0959
15390SOL    HW146348   5.634   1.402   2.293  0.7933 -0.1549 -1.7159
15390SOL    HW246349   5.720   1.307   2.395 -1.6028 -1.1851 -0.5833
15391SOL     OW46350   6.319   0.124   0.990  0.2151  0.1838 -0.3705
15391SOL    HW146351   6.270   0.211   1.000  0.2109  0.0335  1.2136
15391SOL    HW246352   6.405   0.128   1.040  1.2319 -0.0272 -2.0244
15392SOL     OW46353   6.137   4.192   1.615  0.1226  0.4543  0.9063
15392SOL    HW146354   6.164   4.202   1.520  1.2653  2.7684  1.4157
15392SOL    HW246355   6.192   4.120   1.658 -0.8523 -1.0645 -0.2841
15393SOL     OW46356   0.570   7.514   4.483  0.3726  0.5127 -0.4946
15393SOL    HW146357   0.478   7.548   4.499  0.8584  1.6610  0.0178
15393SOL    HW246358   0.584   7.429   4.534 -0.3324  0.4364 -0.4259
15394SOL     OW46359   6.034   5.024   3.589  0.0719 -0.0857  0.4507
15394SOL    HW146360   5.938   5.017   3.614 -0.4456  0.6484 -1.2273
15394SOL    HW246361   6.059   5.120   3.578  0.8234 -0.3030  0.2132
15395SOL     OW46362   4.041   3.845   4.441  0.9632  0.0586  0.5178
15395SOL    HW146363   4.075   3.868   4.532  0.3287  0.4678  0.6581
15395SOL    HW246364   4.108   3.871   4.373  1.3957 -0.1470  0.8619
15396SOL     OW46365   0.445   4.156   7.601  0.5942 -0.1782 -0.0008
15396SOL    HW146366   0.354   4.126   7.627  0.3936  0.0925 -0.3794
15396SOL    HW246367   0.508   4.143   7.678 -0.1549  1.3952  0.9312
15397SOL     OW46368   1.647   5.176   3.208 -0.4132  0.2074  0.2577
15397SOL    HW146369   1.592   5.258   3.223 -1.4715 -0.2379 -0.9672
15397SOL    HW246370   1.601   5.117   3.142  1.0158 -0.7188  0.0385
15398SOL     OW46371   6.847   4.901   2.455 -0.0093  0.5766 -0.1988
15398SOL    HW146372   6.852   4.994   2.418  0.6170  0.1129 -1.3218
15398SOL    HW246373   6.751   4.875   2.466 -0.1963  1.5246  0.6154
15399SOL     OW46374   5.720   3.748   0.315 -1.1283  0.3433 -0.3377
15399SOL    HW146375   5.811   3.757   0.276  0.1135 -0.3301  2.1897
15399SOL    HW246376   5.692   3.834   0.357 -0.0086 -0.4140  2.0915
15400SOL     OW46377   5.938   2.902   5.014  0.1070  0.0024  0.0937
15400SOL    HW146378   5.872   2.858   4.953 -0.7330  0.2884  0.7696
15400SOL    HW246379   6.002   2.835   5.050 -0.8847 -0.6119  0.7661
15401SOL     OW46380   8.857   1.659   6.315  0.0101 -0.0155 -0.3800
15401SOL    HW146381   8.917   1.739   6.307 -0.2991  0.2400 -0.1930
15401SOL    HW246382   8.902   1.588   6.369 -0.1964  0.5175  0.5196
15402SOL     OW46383   0.037   6.697   5.943  0.2684  0.2737 -0.0064
15402SOL    HW146384   0.099   6.670   6.016  0.6395  0.4419 -0.2544
15402SOL    HW246385  -0.052   6.655   5.958  0.3124  0.3895  0.5922
15403SOL     OW46386   7.367   6.461   1.457 -0.1398  0.3320 -0.4965
15403SOL    HW146387   7.444   6.443   1.518  0.5592  2.8037 -0.5449
15403SOL    HW246388   7.320   6.375   1.436  0.6823 -0.8437  2.0565
15404SOL     OW46389   3.489   7.276   1.629 -0.2136  0.8491  0.1806
15404SOL    HW146390   3.569   7.324   1.594  0.4200 -0.3633 -0.0487
15404SOL    HW246391   3.496   7.268   1.729  0.9068 -0.9144 -0.0070
15405SOL     OW46392   7.031   7.286   7.447 -0.1337  0.1164  0.5600
15405SOL    HW146393   7.120   7.249   7.420 -0.4702 -0.7995  0.6822
15405SOL    HW246394   7.042   7.381   7.477  0.8153 -0.0183  0.6628
15406SOL     OW46395   8.062   7.953   0.911 -0.6836 -0.3490  0.3868
15406SOL    HW146396   8.145   8.004   0.934 -0.1210 -0.6297 -0.9323
15406SOL    HW246397   8.020   7.992   0.829 -0.2756 -1.9123 -0.6202
15407SOL     OW46398   4.807   3.418   2.176 -0.1094 -0.0754  0.1884
15407SOL    HW146399   4.709   3.400   2.174 -0.0768 -0.3295  0.6911
15407SOL    HW246400   4.823   3.517   2.181 -0.3689 -0.0823  1.4296
15408SOL     OW46401   6.671   7.286   5.209 -0.2169 -0.1050  0.0826
15408SOL    HW146402   6.603   7.280   5.281 -0.5134  0.7715 -0.1045
15408SOL    HW246403   6.630   7.259   5.122  0.0584 -0.8788  0.1860
15409SOL     OW46404   2.575   4.286   3.783 -0.3791  0.1462  0.0499
15409SOL    HW146405   2.505   4.352   3.808  0.8349  1.3554  0.3829
15409SOL    HW246406   2.591   4.289   3.685  0.9637  1.7275  0.2829
15410SOL     OW46407   2.187   6.836   8.594  0.2270  0.1988 -0.3445
15410SOL    HW146408   2.189   6.815   8.496  1.0299 -0.9549 -0.0912
15410SOL    HW246409   2.133   6.766   8.641  0.4479  0.3555  0.1375
15411SOL     OW46410   7.320   8.359   6.489  0.1150  0.3613 -0.8407
15411SOL    HW146411   7.307   8.315   6.577 -2.1218  1.5916 -0.4664
15411SOL    HW246412   7.412   8.397   6.483  0.1892  0.5870  1.1225
15412SOL     OW46413   2.254   1.946   7.194 -0.0723  0.4464 -0.2900
15412SOL    HW146414   2.222   1.955   7.100 -0.5083  0.2059 -0.1673
15412SOL    HW246415   2.303   1.859   7.205 -1.8311 -0.5172  0.2066
15413SOL     OW46416   0.448   7.309   8.156 -0.2644  0.8335  0.2623
15413SOL    HW146417   0.463   7.283   8.061  0.9211 -1.3271  0.9700
15413SOL    HW246418   0.363   7.266   8.189 -0.6509  1.5418  0.2131
15414SOL     OW46419   0.333   3.968   3.437  0.1347 -0.3305  0.1420
15414SOL    HW146420   0.362   4.020   3.357 -0.8907 -1.2764 -0.8700
15414SOL    HW246421   0.406   3.904   3.462  0.8653  0.6521  0.6011
15415SOL     OW46422   7.770   0.826   6.721 -0.9474 -0.6287  0.0514
15415SOL    HW146423   7.816   0.893   6.664 -1.2519 -1.0648 -0.7244
15415SOL    HW246424   7.679   0.806   6.683 -0.5314 -2.1094 -0.2388
15416SOL     OW46425   4.372   6.809   8.102  0.9897  0.3499  0.1077
15416SOL    HW146426   4.303   6.882   8.105  0.8187  0.1658  1.5609
15416SOL    HW246427   4.443   6.833   8.036  0.5652  1.4920  0.0401
15417SOL     OW46428   2.749   5.272   2.618  0.0763 -0.0612 -0.0288
15417SOL    HW146429   2.680   5.258   2.689 -1.6997 -0.2820 -1.7427
15417SOL    HW246430   2.795   5.360   2.633 -0.5053  0.0569  1.1809
15418SOL     OW46431   2.586   8.139   6.656  0.0751  0.1763 -0.6673
15418SOL    HW146432   2.652   8.144   6.580 -0.8414  2.0261 -1.3909
15418SOL    HW246433   2.634   8.147   6.743  0.7326  3.6594 -1.2161
15419SOL     OW46434   3.752   4.785   1.001  0.0080 -0.7318 -0.2801
15419SOL    HW146435   3.669   4.814   0.952 -0.6053 -0.6290  0.7877
15419SOL    HW246436   3.743   4.809   1.097  1.6596  0.0259 -0.2951
15420SOL     OW46437   4.452   6.397   2.450 -0.0896  0.5047 -0.4066
15420SOL    HW146438   4.429   6.358   2.361  3.1413 -1.1505 -0.6700
15420SOL    HW246439   4.408   6.345   2.523 -0.0761 -0.2798 -0.9482
15421SOL     OW46440   1.476   5.786   1.576  0.8602 -0.3888  0.2616
15421SOL    HW146441   1.542   5.753   1.644  0.7729 -0.5187  0.2855
15421SOL    HW246442   1.457   5.712   1.511 -1.6684 -1.4870  2.0742
15422SOL     OW46443   4.393   1.154   8.572  0.4141 -0.2904  0.5393
15422SOL    HW146444   4.376   1.058   8.551  0.3009 -0.0365 -0.6083
15422SOL    HW246445   4.465   1.161   8.641  0.3252 -1.1968  0.7355
15423SOL     OW46446   7.089   8.079   2.227 -0.1113  0.4805 -0.6283
15423SOL    HW146447   7.123   8.168   2.197  0.4218  0.6292  0.3571
15423SOL    HW246448   7.062   8.085   2.323 -0.6924 -0.2579 -0.7354
15424SOL     OW46449   0.716   7.393   8.779 -0.4588 -0.0791 -0.4134
15424SOL    HW146450   0.770   7.403   8.696 -2.2383 -0.5725 -1.6943
15424SOL    HW246451   0.771   7.350   8.851  0.4167 -1.9646 -2.1250
15425SOL     OW46452   0.530   7.367   2.801 -0.0850 -0.7219 -0.0881
15425SOL    HW146453   0.491   7.363   2.710 -0.3468  0.3162 -0.0242
15425SOL    HW246454   0.629   7.351   2.796 -0.0794 -0.5392 -0.5598
15426SOL     OW46455   8.683   1.943   0.581  0.9768  0.0351 -0.2125
15426SOL    HW146456   8.778   1.910   0.584  0.2296 -2.2514  0.4320
15426SOL    HW246457   8.649   1.955   0.674  0.6962  1.1384 -0.4442
15427SOL     OW46458   8.166   2.169   6.534 -0.1057 -0.6864 -0.1338
15427SOL    HW146459   8.129   2.235   6.469 -1.3822  0.4430  1.6678
15427SOL    HW246460   8.200   2.089   6.484 -1.4330 -0.0654 -2.1492
15428SOL     OW46461   6.645   5.987   6.892  1.0255 -0.6225 -0.4647
15428SOL    HW146462   6.721   5.930   6.922  0.5560 -0.9839  0.0767
15428SOL    HW246463   6.679   6.063   6.837  1.6833 -1.2629 -0.9533
15429SOL     OW46464   6.722   7.781   5.862  0.1370  0.5685  0.3731
15429SOL    HW146465   6.707   7.872   5.823 -1.8393  0.1173 -0.0207
15429SOL    HW246466   6.717   7.787   5.962 -1.2292  0.7354  0.3180
15430SOL     OW46467   2.984   8.520   4.716 -0.2641  0.4040 -0.6897
15430SOL    HW146468   3.014   8.431   4.683 -0.4653 -0.2449  0.8234
15430SOL    HW246469   3.064   8.577   4.737 -0.0345 -0.5947  1.3894
15431SOL     OW46470   6.130   2.798   0.939  0.3847 -0.1472  0.2681
15431SOL    HW146471   6.228   2.778   0.936  0.4784  0.3191  0.2122
15431SOL    HW246472   6.092   2.791   0.847 -0.0579 -2.3817  0.5631
15432SOL     OW46473   5.678   8.363   6.265  0.0665 -0.9956  0.3746
15432SOL    HW146474   5.650   8.418   6.343  0.7340  0.3770 -0.3310
15432SOL    HW246475   5.702   8.271   6.297 -2.1111 -1.2804  1.4141
15433SOL     OW46476   0.092   5.640   4.347  0.0615  0.4748  0.3868
15433SOL    HW146477   0.101   5.660   4.250  2.5216 -0.4346  0.3736
15433SOL    HW246478   0.038   5.712   4.391 -2.6351 -0.0064 -1.8937
15434SOL     OW46479   5.796   7.188   4.549 -0.2884 -0.1204 -0.0269
15434SOL    HW146480   5.873   7.252   4.540  0.3486 -1.0474 -1.5906
15434SOL    HW246481   5.825   7.109   4.604 -0.0152 -0.5881 -0.8240
15435SOL     OW46482   5.315   6.920   8.234  0.4472 -0.0392  0.2802
15435SOL    HW146483   5.411   6.945   8.223  0.8218 -2.0545 -1.9695
15435SOL    HW246484   5.257   6.991   8.195  1.0976  0.4932  0.2728
15436SOL     OW46485   0.029   2.598   3.223  0.4806  0.6346  0.1360
15436SOL    HW146486   0.122   2.631   3.206  0.1916  1.0008 -0.7871
15436SOL    HW246487   0.006   2.527   3.156 -0.4095  1.5572 -0.5647
15437SOL     OW46488   2.477   1.998   8.476  0.1576  0.0878  0.2150
15437SOL    HW146489   2.459   2.001   8.575  1.1501  3.4493  0.4140
15437SOL    HW246490   2.575   2.002   8.460 -0.0425  1.6407 -0.8515
15438SOL     OW46491   2.388   3.117   3.078 -0.3645  0.3762 -0.9840
15438SOL    HW146492   2.461   3.054   3.052 -0.0812  0.1810  0.2117
15438SOL    HW246493   2.428   3.207   3.099 -0.3401  0.0250  0.5346
15439SOL     OW46494   8.432   0.053   6.223  0.1881  0.0402 -0.0014
15439SOL    HW146495   8.414   0.131   6.283  0.4215  0.3151 -0.2878
15439SOL    HW246496   8.444  -0.029   6.278 -0.7789  0.0645  0.2638
15440SOL     OW46497   1.161   6.698   2.260  0.9479  0.7250 -0.2605
15440SOL    HW146498   1.091   6.741   2.202 -0.4943 -0.0418  0.8383
15440SOL    HW246499   1.182   6.607   2.223  0.8967  0.7108 -0.2563
15441SOL     OW46500   5.653   4.264   1.016  0.1915 -0.0265  0.3860
15441SOL    HW146501   5.594   4.302   1.087 -0.9543 -0.5939 -0.2350
15441SOL    HW246502   5.605   4.266   0.928  0.8757 -1.0596 -0.0265
15442SOL     OW46503   6.017   8.823   7.921 -0.4159 -0.3413  0.0376
15442SOL    HW146504   6.001   8.782   8.011  0.8347 -0.3258  0.2847
15442SOL    HW246505   6.079   8.901   7.930 -2.5925  1.5398 -0.4637
15443SOL     OW46506   1.450   2.288   2.814 -0.3403 -0.3265 -0.1176
15443SOL    HW146507   1.494   2.289   2.904 -1.2534  2.6178  0.4038
15443SOL    HW246508   1.471   2.374   2.766 -1.1338 -1.1797 -2.1029
15444SOL     OW46509   7.442   2.116   7.802 -0.0476 -0.2898  0.0432
15444SOL    HW146510   7.526   2.143   7.755 -0.1582 -0.4294 -0.2349
15444SOL    HW246511   7.410   2.192   7.859 -0.7931  0.4748 -1.3416
15445SOL     OW46512   1.046   5.429   1.121  0.3660  0.4636  0.3674
15445SOL    HW146513   1.126   5.467   1.168  2.3460 -0.9062 -1.6760
15445SOL    HW246514   1.036   5.473   1.031  0.0499 -0.7380 -0.2130
15446SOL     OW46515   1.668   8.676   7.934 -0.0891 -0.4644 -0.2418
15446SOL    HW146516   1.726   8.702   7.857 -0.9024  0.1952 -0.6579
15446SOL    HW246517   1.595   8.616   7.902 -0.6255  0.0770 -0.0722
15447SOL     OW46518   0.932   8.026   2.349 -0.3015 -0.0980  0.2716
15447SOL    HW146519   0.899   8.044   2.441  0.0776  0.9687  0.2172
15447SOL    HW246520   0.857   8.041   2.283 -0.0021  1.4341  0.2267
15448SOL     OW46521   4.048   7.939   5.588  0.5785 -0.0662 -0.5349
15448SOL    HW146522   3.951   7.959   5.574  0.2505 -2.2208 -1.7356
15448SOL    HW246523   4.089   8.012   5.642 -2.3350 -0.4692  2.5637
15449SOL     OW46524   4.051   3.066   2.136 -0.7484 -0.0791  0.1599
15449SOL    HW146525   3.981   3.042   2.067 -1.0762 -0.0234  0.4713
15449SOL    HW246526   4.007   3.111   2.213 -0.3848 -0.1912  0.4337
15450SOL     OW46527   6.672   6.729   8.838 -0.8106  0.2482  0.3682
15450SOL    HW146528   6.636   6.749   8.748  0.6489 -1.1354 -0.5779
15450SOL    HW246529   6.631   6.645   8.873 -1.9165  1.1662  1.3453
15451SOL     OW46530   4.142   5.629   3.164  0.2464 -0.0448  0.3829
15451SOL    HW146531   4.056   5.581   3.176  0.1111  0.2190  0.4871
15451SOL    HW246532   4.211   5.591   3.225  0.8423 -1.7433 -1.2603
15452SOL     OW46533   5.313   7.953   6.102 -0.5137 -0.2119 -0.2011
15452SOL    HW146534   5.373   7.915   6.031  0.8231 -1.1756  1.3883
15452SOL    HW246535   5.331   8.051   6.111 -1.1137  0.0535 -1.5505
15453SOL     OW46536   0.575   1.789   5.513  0.4978 -0.2343 -0.3701
15453SOL    HW146537   0.658   1.838   5.485  0.4837 -0.2600 -0.4555
15453SOL    HW246538   0.595   1.732   5.593  0.5025 -0.0506 -0.2375
15454SOL     OW46539   2.782   7.004   8.861 -0.4501 -0.1097  0.4289
15454SOL    HW146540   2.766   6.924   8.803  1.4970 -1.0464  1.0784
15454SOL    HW246541   2.844   6.978   8.936 -0.1408  1.9022  0.9247
15455SOL     OW46542   5.677   3.601   4.444 -0.2587 -0.2361 -0.5548
15455SOL    HW146543   5.595   3.623   4.497 -0.2044  0.2630 -0.6668
15455SOL    HW246544   5.710   3.684   4.399 -0.7397 -0.7916 -1.9965
15456SOL     OW46545   2.155   0.683   4.761  0.2141  0.2075 -0.1446
15456SOL    HW146546   2.197   0.715   4.676  1.0344 -2.2943 -0.7733
15456SOL    HW246547   2.057   0.701   4.759  0.4356  1.4778 -0.9516
15457SOL     OW46548   2.784   1.673   0.265  0.3459  0.3904  0.3330
15457SOL    HW146549   2.861   1.685   0.329  0.9049  0.6429 -0.3721
15457SOL    HW246550   2.809   1.711   0.176 -0.2413 -0.3883 -0.1742
15458SOL     OW46551   2.727   0.483   1.426 -0.6011 -0.1454 -0.1364
15458SOL    HW146552   2.691   0.568   1.465 -1.1854  0.4810 -1.9351
15458SOL    HW246553   2.676   0.406   1.463 -1.7105  0.4932 -0.2761
15459SOL     OW46554   8.778   4.860   1.851  0.0444  0.6484  0.1272
15459SOL    HW146555   8.714   4.927   1.814 -1.0385 -0.9496 -1.0334
15459SOL    HW246556   8.871   4.882   1.821 -0.1763  2.0774  0.4611
15460SOL     OW46557   3.429   4.537   4.601 -0.3153 -0.5308 -0.4844
15460SOL    HW146558   3.349   4.520   4.658  0.4383  0.8157  1.0565
15460SOL    HW246559   3.489   4.458   4.603  1.2008  0.4972  3.2469
15461SOL     OW46560   1.768   2.227   0.453 -0.6138  0.1414 -0.1249
15461SOL    HW146561   1.757   2.156   0.383 -0.9378 -0.3548  0.4183
15461SOL    HW246562   1.862   2.262   0.450 -0.5416 -0.0782 -0.6110
15462SOL     OW46563   2.504   0.076   3.885 -0.1302 -0.0761  0.3500
15462SOL    HW146564   2.535   0.144   3.818 -2.2475  2.9864  2.2063
15462SOL    HW246565   2.576   0.062   3.953  0.5079 -0.0546 -0.3066
15463SOL     OW46566   4.792   8.282   6.583  0.1964 -0.2850  0.5864
15463SOL    HW146567   4.711   8.235   6.547  0.9846 -0.7578 -0.6602
15463SOL    HW246568   4.808   8.254   6.678 -1.0179 -0.2859  0.8000
15464SOL     OW46569   2.356   5.839   2.464 -0.4191  0.7510  0.1490
15464SOL    HW146570   2.292   5.767   2.490 -0.9327  0.8096 -0.9079
15464SOL    HW246571   2.427   5.847   2.534 -1.3490  0.4360  1.1632
15465SOL     OW46572   1.399   6.237   4.245 -0.0281  0.0942  0.3149
15465SOL    HW146573   1.383   6.230   4.147 -1.6991  2.5607  0.3168
15465SOL    HW246574   1.460   6.315   4.263  0.6853 -0.6544  1.2262
15466SOL     OW46575   1.492   6.720   4.386  0.2530  0.3547 -0.6806
15466SOL    HW146576   1.415   6.759   4.436  0.7351  1.3959 -0.7303
15466SOL    HW246577   1.534   6.791   4.329  0.5889 -0.4630 -1.4719
15467SOL     OW46578   7.904   7.163   4.176 -0.0558  0.2686 -0.4609
15467SOL    HW146579   7.869   7.179   4.084  0.3951  1.6766 -0.4139
15467SOL    HW246580   7.872   7.236   4.237 -0.1826 -0.5365  0.4562
15468SOL     OW46581   1.566   3.268   7.835  0.3378 -0.0545 -0.4159
15468SOL    HW146582   1.481   3.266   7.783  0.8074  0.4255 -1.2413
15468SOL    HW246583   1.554   3.223   7.923 -1.6334  2.5531  0.7891
15469SOL     OW46584   1.450   0.672   0.081  0.2294 -0.1053 -0.3118
15469SOL    HW146585   1.469   0.693   0.177  0.6459 -0.9489 -0.1979
15469SOL    HW246586   1.362   0.623   0.075  0.6169 -0.8296 -0.2494
15470SOL     OW46587   4.018   5.782   1.441 -0.0550 -0.1763  0.5340
15470SOL    HW146588   4.066   5.706   1.486  0.8055 -1.3984 -2.2235
15470SOL    HW246589   3.920   5.761   1.437 -0.0602 -0.3174  1.3084
15471SOL     OW46590   6.425   3.550   2.508  0.4365  0.0370  0.0957
15471SOL    HW146591   6.347   3.537   2.447 -0.7191  0.8080  1.3496
15471SOL    HW246592   6.434   3.647   2.531  1.6487 -0.0669  0.1307
15472SOL     OW46593   4.039   8.437   4.034  0.5029  0.0125 -0.7726
15472SOL    HW146594   3.960   8.446   3.974  1.3720  2.7240 -1.6714
15472SOL    HW246595   4.009   8.417   4.128 -1.2050  0.6166 -1.1658
15473SOL     OW46596   7.502   0.598   1.889 -0.0537  0.2864  0.7219
15473SOL    HW146597   7.471   0.688   1.919  1.1470  0.6797  0.8491
15473SOL    HW246598   7.581   0.570   1.944  1.1822  0.3031 -0.9617
15474SOL     OW46599   7.288   4.620   2.919 -0.3281 -0.6598 -0.0783
15474SOL    HW146600   7.303   4.717   2.903  2.1306 -0.7396  1.2250
15474SOL    HW246601   7.210   4.589   2.865 -2.5636  2.4414  1.0544
15475SOL     OW46602   5.823   6.831   7.719  0.3684 -0.0017 -0.0552
15475SOL    HW146603   5.823   6.751   7.660 -0.0825 -0.3741  0.4347
15475SOL    HW246604   5.808   6.914   7.665  1.9369 -0.1269 -0.7102
15476SOL     OW46605   8.719   0.599   4.701  0.4672  0.2828  0.4706
15476SOL    HW146606   8.714   0.694   4.732  0.5233 -0.1684  1.9290
15476SOL    HW246607   8.648   0.545   4.747 -1.1607  0.0429 -2.1122
15477SOL     OW46608   3.319   3.588   1.059  0.2878 -0.2543 -0.0317
15477SOL    HW146609   3.397   3.635   1.019 -1.2051  1.4049 -1.1553
15477SOL    HW246610   3.283   3.521   0.993 -0.4865  0.5057 -0.4091
15478SOL     OW46611   6.905   6.046   6.430  1.0245  0.1396 -0.0972
15478SOL    HW146612   6.843   5.986   6.379 -0.9170  0.6173  1.5547
15478SOL    HW246613   6.925   6.004   6.519  1.9762  0.6331 -0.0710
15479SOL     OW46614   2.562   2.625   3.901  0.4341 -0.0597 -0.3643
15479SOL    HW146615   2.477   2.678   3.908  0.0358 -0.7137 -0.1910
15479SOL    HW246616   2.565   2.556   3.973  0.4379 -0.9900 -1.2415
15480SOL     OW46617   5.395   1.818   0.115 -0.3126 -0.1878  0.1600
15480SOL    HW146618   5.391   1.863   0.204 -3.2335 -1.2829  0.6824
15480SOL    HW246619   5.445   1.876   0.051 -0.0422  1.6598  1.9341
15481SOL     OW46620   6.103   5.252   7.730 -0.1403  0.1612 -0.2064
15481SOL    HW146621   6.059   5.198   7.659 -0.4789 -0.0888  0.1859
15481SOL    HW246622   6.124   5.193   7.808  1.7410  0.0671 -0.7379
15482SOL     OW46623   3.412   0.447   3.877  0.3485  0.3792  0.6042
15482SOL    HW146624   3.470   0.429   3.797 -0.4854  1.1421 -0.1946
15482SOL    HW246625   3.425   0.542   3.906  1.6006 -0.2211  2.2017
15483SOL     OW46626   8.594   3.124   1.830  0.0276  0.3271  0.4671
15483SOL    HW146627   8.633   3.054   1.769 -0.3802 -0.1871  0.7894
15483SOL    HW246628   8.655   3.203   1.833 -0.3444  0.7338 -1.2851
15484SOL     OW46629   8.313   7.912   6.042 -0.3097 -0.0824  0.5126
15484SOL    HW146630   8.288   7.919   5.945 -0.1970  0.2765  0.5071
15484SOL    HW246631   8.370   7.832   6.056  1.3352  0.9319 -0.0789
15485SOL     OW46632   5.236   1.080   3.636  0.0103 -0.0242  0.6339
15485SOL    HW146633   5.285   1.024   3.703 -0.0977 -0.6039  0.2430
15485SOL    HW246634   5.183   1.020   3.576  2.0510  0.2435 -1.5746
15486SOL     OW46635   5.860   3.352   0.591 -0.1642 -0.0856  0.6924
15486SOL    HW146636   5.855   3.305   0.503  2.9896  0.0467  0.3461
15486SOL    HW246637   5.879   3.286   0.664  0.7356  0.2122  0.7346
15487SOL     OW46638   4.015   2.819   2.891 -0.0722 -0.2900 -0.3176
15487SOL    HW146639   4.008   2.915   2.864  1.1414 -0.7933 -2.6960
15487SOL    HW246640   3.925   2.785   2.919 -0.3647  1.7182  1.4671
15488SOL     OW46641   1.720   1.513   1.520  0.0363 -0.5214 -0.0348
15488SOL    HW146642   1.738   1.415   1.531 -0.0768 -0.6337 -0.7869
15488SOL    HW246643   1.782   1.565   1.579  0.3771 -1.0333  0.0625
15489SOL     OW46644   4.410   0.758   7.144 -0.0520 -0.1269 -0.2501
15489SOL    HW146645   4.333   0.814   7.113 -0.9417 -1.5668 -0.7072
15489SOL    HW246646   4.437   0.787   7.235 -0.3025  1.2343 -0.5872
15490SOL     OW46647   3.049   2.570   2.611  0.8544 -0.0495 -0.6619
15490SOL    HW146648   2.975   2.575   2.543  1.3754 -0.8732 -1.2951
15490SOL    HW246649   3.132   2.534   2.569  1.0171 -1.1900  0.5519
15491SOL     OW46650   1.352   0.556   4.885  0.2226 -0.3889 -0.4579
15491SOL    HW146651   1.423   0.543   4.954  0.2784 -0.6394 -0.5627
15491SOL    HW246652   1.339   0.653   4.869  0.2454 -0.3288 -0.1297
15492SOL     OW46653   0.957   3.820   1.654 -0.5619  0.2120 -0.3286
15492SOL    HW146654   0.909   3.825   1.741 -2.8556 -0.5154 -1.4650
15492SOL    HW246655   0.941   3.730   1.612 -0.3902  0.8982 -1.9404
15493SOL     OW46656   3.669   2.229   5.922 -0.2179 -0.2523  0.2436
15493SOL    HW146657   3.723   2.313   5.911  0.2955 -0.5976  0.0865
15493SOL    HW246658   3.574   2.253   5.939  0.4023  0.4623  3.2864
15494SOL     OW46659   3.341   8.773   5.244  0.4484 -0.1688  0.0188
15494SOL    HW146660   3.379   8.864   5.228 -1.3037  0.7838  1.0511
15494SOL    HW246661   3.289   8.744   5.163  0.6117 -0.0568 -0.1273
15495SOL     OW46662   7.448   5.987   2.834 -0.1895 -0.6850 -0.4356
15495SOL    HW146663   7.509   6.042   2.892 -1.0962 -0.4283  0.2864
15495SOL    HW246664   7.499   5.909   2.798 -0.1462 -2.1152  2.5144
15496SOL     OW46665   4.921   4.668   6.101 -0.0427  0.2330  0.1478
15496SOL    HW146666   4.925   4.714   6.012  0.1838  0.7417  0.4199
15496SOL    HW246667   4.855   4.593   6.096  0.7569 -0.4491 -0.7800
15497SOL     OW46668   8.078   4.102   8.115 -0.1038  0.3332 -0.1845
15497SOL    HW146669   8.047   4.050   8.194  3.2937  0.0494  1.1480
15497SOL    HW246670   8.082   4.042   8.035  1.9873 -1.0820  0.8881
15498SOL     OW46671   7.140   8.362   4.392 -0.0234  0.0702  0.1699
15498SOL    HW146672   7.165   8.292   4.325 -1.0000  0.2021 -0.3451
15498SOL    HW246673   7.080   8.322   4.462  1.9275 -0.3667  1.6810
15499SOL     OW46674   7.566   7.617   0.365  0.1791 -0.7862 -0.2121
15499SOL    HW146675   7.643   7.631   0.428 -0.3468 -1.5112  0.6104
15499SOL    HW246676   7.498   7.688   0.379  0.2362 -0.7263 -0.2371
15500SOL     OW46677   4.305   5.292   0.524  0.4526 -0.2631  0.3301
15500SOL    HW146678   4.343   5.284   0.432  0.8268 -0.5192  0.5017
15500SOL    HW246679   4.242   5.369   0.528  2.1023  1.1502  0.4064
15501SOL     OW46680   1.672   3.429   8.640  1.3342 -0.4218  0.4684
15501SOL    HW146681   1.587   3.412   8.689  1.7701 -1.5481  0.8635
15501SOL    HW246682   1.658   3.503   8.573  0.0017 -0.7231  0.3863
15502SOL     OW46683   5.238   3.341   0.404  0.1888 -0.1020 -0.2372
15502SOL    HW146684   5.237   3.337   0.305 -0.8049 -1.0178 -0.2100
15502SOL    HW246685   5.332   3.342   0.437  0.6011  2.3705 -1.2277
15503SOL     OW46686   4.682   5.203   1.454  0.0807  0.1046  0.3108
15503SOL    HW146687   4.670   5.302   1.447  0.1374  0.1996  1.3831
15503SOL    HW246688   4.761   5.183   1.512  1.6274 -0.5743 -1.9211
15504SOL     OW46689   5.663   7.246   5.772  0.4093 -0.0518 -0.4512
15504SOL    HW146690   5.756   7.276   5.748 -0.3544  1.1321 -2.1246
15504SOL    HW246691   5.632   7.177   5.707  0.0609 -0.3767  0.0464
15505SOL     OW46692   6.365   5.874   1.142 -0.4013 -0.3167  0.1167
15505SOL    HW146693   6.453   5.896   1.099  0.2048  1.2110  2.0138
15505SOL    HW246694   6.291   5.906   1.084  0.3685  0.7551 -0.3181
15506SOL     OW46695   5.938   6.621   7.327  0.3573  0.3750 -0.3823
15506SOL    HW146696   5.948   6.654   7.421 -2.5744  3.5986 -0.9841
15506SOL    HW246697   5.979   6.688   7.265 -2.2595  1.0618 -1.5108
15507SOL     OW46698   3.198   8.305   0.370  0.0735  0.1621  0.2272
15507SOL    HW146699   3.281   8.337   0.417  0.0697  1.6544 -0.7051
15507SOL    HW246700   3.119   8.320   0.429  0.6250 -3.8857  2.3336
15508SOL     OW46701   2.877   6.536   4.182 -0.4170  0.5038  0.1171
15508SOL    HW146702   2.874   6.594   4.100 -1.0124  0.1466 -0.1261
15508SOL    HW246703   2.964   6.488   4.186 -0.7454 -0.1998 -0.8343
15509SOL     OW46704   2.039   1.724   5.410 -0.3575  0.3511 -1.1562
15509SOL    HW146705   2.011   1.811   5.370 -1.1812  0.4344 -0.4245
15509SOL    HW246706   2.076   1.740   5.502 -2.4523 -0.2519 -0.1478
15510SOL     OW46707   3.731   3.287   5.654  0.0516 -0.2940 -0.1074
15510SOL    HW146708   3.792   3.329   5.586  1.2821 -2.1031 -0.2097
15510SOL    HW246709   3.713   3.352   5.727  1.9923  0.3927 -0.1730
15511SOL     OW46710   0.478   7.871   7.737 -0.4941 -0.2035  0.3653
15511SOL    HW146711   0.460   7.939   7.808 -1.1692  1.9200 -1.6960
15511SOL    HW246712   0.577   7.853   7.734  0.0655  2.4625 -0.4298
15512SOL     OW46713   2.408   1.145   0.703 -0.1668  0.5027  0.2414
15512SOL    HW146714   2.504   1.153   0.728 -0.1177 -0.7553  0.5166
15512SOL    HW246715   2.400   1.131   0.604 -0.0015 -0.2184  0.3228
15513SOL     OW46716   0.030   0.393   0.895 -0.0340 -0.5117  0.2686
15513SOL    HW146717  -0.051   0.387   0.953  0.1207  1.1016  0.6986
15513SOL    HW246718   0.006   0.373   0.801 -1.0924  0.6211  0.2777
15514SOL     OW46719   6.433   8.588   7.694  0.3296  0.2324 -0.4936
15514SOL    HW146720   6.477   8.501   7.669 -1.7535 -0.5820 -1.6662
15514SOL    HW246721   6.441   8.652   7.618 -1.1642 -0.2327 -1.0788
15515SOL     OW46722   8.243   6.806   6.103 -0.1415 -0.4397  0.1256
15515SOL    HW146723   8.154   6.814   6.058 -0.5734  2.1187  1.3175
15515SOL    HW246724   8.315   6.804   6.033 -0.9448  0.8030 -0.7664
15516SOL     OW46725   5.363   5.455   5.605 -0.0608 -0.7528 -0.1807
15516SOL    HW146726   5.280   5.400   5.615  0.8681 -1.9812  1.0931
15516SOL    HW246727   5.338   5.547   5.573 -1.8384 -1.2713 -0.3903
15517SOL     OW46728   8.188   4.789   4.804 -0.2957 -0.2303  0.5877
15517SOL    HW146729   8.204   4.838   4.718 -0.6233 -1.3328 -0.1293
15517SOL    HW246730   8.253   4.821   4.873  0.4194  0.2084 -0.2611
15518SOL     OW46731   1.218   4.400   7.953 -0.1135 -0.2349  0.4075
15518SOL    HW146732   1.175   4.486   7.923 -0.1899  0.7212  3.0331
15518SOL    HW246733   1.177   4.324   7.902 -0.3323  1.2012 -1.7064
15519SOL     OW46734   5.197   6.971   0.450  0.1552  0.2438 -0.5370
15519SOL    HW146735   5.192   7.063   0.409 -1.7584 -0.1245 -1.2540
15519SOL    HW246736   5.188   6.979   0.549 -0.9417  0.8086 -0.6610
15520SOL     OW46737   7.631   6.909   8.756  0.1405  0.3141 -0.5388
15520SOL    HW146738   7.598   6.816   8.741 -0.7457  0.5055  0.1235
15520SOL    HW246739   7.647   6.923   8.854 -0.0529  0.9575 -0.5945
15521SOL     OW46740   0.793   7.759   5.563  0.3793  0.0130 -0.0379
15521SOL    HW146741   0.763   7.669   5.531 -1.7940  0.7042 -0.1480
15521SOL    HW246742   0.717   7.824   5.553  1.6333  1.6684  0.8085
15522SOL     OW46743   7.598   1.968   0.827  0.1890 -0.4552  0.2581
15522SOL    HW146744   7.618   1.870   0.828 -0.7636 -0.6573  1.5500
15522SOL    HW246745   7.607   2.005   0.919  1.3070  0.8549 -0.3491
15523SOL     OW46746   0.811   5.755   0.933 -0.2920  0.1968 -0.5311
15523SOL    HW146747   0.875   5.681   0.954  0.6638  0.9192 -0.8219
15523SOL    HW246748   0.830   5.790   0.841 -1.7133 -0.1727 -0.9913
15524SOL     OW46749   4.476   6.807   2.427 -0.1042  0.4307  0.1622
15524SOL    HW146750   4.495   6.734   2.492  0.4531  2.1755  2.0390
15524SOL    HW246751   4.459   6.767   2.336  0.3802 -1.9746  1.0630
15525SOL     OW46752   5.031   7.423   7.972  0.4183  0.5127 -0.5454
15525SOL    HW146753   5.057   7.519   7.975  0.0675  0.6017 -0.3853
15525SOL    HW246754   5.020   7.388   8.065 -1.5032  0.8711 -0.6173
15526SOL     OW46755   4.989   3.409   2.446  0.3616 -0.1298  0.3426
15526SOL    HW146756   4.948   3.496   2.472  1.7685  0.4375  0.7573
15526SOL    HW246757   5.010   3.409   2.348 -1.0816 -0.6368  0.0106
15527SOL     OW46758   7.474   2.845   2.205 -0.0194  0.1757 -0.4129
15527SOL    HW146759   7.549   2.911   2.216  0.2264 -0.0481 -0.7013
15527SOL    HW246760   7.397   2.888   2.158 -0.5169  0.7280  0.8798
15528SOL     OW46761   0.832   4.370   3.073 -0.0935 -0.0539 -0.2020
15528SOL    HW146762   0.754   4.415   3.028  0.5041  0.7152 -0.4949
15528SOL    HW246763   0.805   4.279   3.102 -1.6457  0.8053  1.2419
15529SOL     OW46764   6.991   8.241   0.875 -0.2536  0.0564  0.0511
15529SOL    HW146765   7.009   8.153   0.831 -0.6113 -0.8010  1.5703
15529SOL    HW246766   7.078   8.281   0.906 -0.0282  0.5401 -1.1481
15530SOL     OW46767   0.722   1.311   0.243 -1.0935  0.0111 -0.2482
15530SOL    HW146768   0.647   1.250   0.220 -0.4249 -0.7926 -0.3624
15530SOL    HW246769   0.723   1.388   0.180 -2.5035  0.6522  0.4660
15531SOL     OW46770   4.351   5.537   8.758  0.6869 -0.7409 -0.4071
15531SOL    HW146771   4.271   5.513   8.704  0.7356 -1.8235 -0.0192
15531SOL    HW246772   4.378   5.631   8.738 -0.3759 -0.5323 -0.9091
15532SOL     OW46773   2.608   8.609   6.171  0.2955  0.1313  0.5256
15532SOL    HW146774   2.642   8.684   6.228  2.7708 -0.7351  0.3305
15532SOL    HW246775   2.631   8.628   6.075 -0.0899 -0.3441  0.3380
15533SOL     OW46776   3.607   4.955   4.461  0.6821 -0.6588 -0.3332
15533SOL    HW146777   3.703   4.931   4.478  0.5463 -1.2957 -0.4461
15533SOL    HW246778   3.548   4.884   4.499  0.3106 -1.1171 -1.7160
15534SOL     OW46779   3.922   5.429   7.198 -0.1246  0.4769  0.1870
15534SOL    HW146780   3.863   5.424   7.117  0.1691  0.1685 -0.0139
15534SOL    HW246781   4.006   5.477   7.175 -1.1541  2.8500  1.0255
15535SOL     OW46782   5.908   1.443   3.122 -0.0884 -0.1100  0.2447
15535SOL    HW146783   5.820   1.445   3.170  0.2167 -1.7459  0.9510
15535SOL    HW246784   5.897   1.485   3.031 -1.7303 -0.6793  0.1418
15536SOL     OW46785   5.466   6.126   1.726 -0.0722  0.0241 -0.5703
15536SOL    HW146786   5.468   6.047   1.787  3.1206 -0.4953 -1.2247
15536SOL    HW246787   5.468   6.210   1.781 -3.4048 -0.2005  0.1231
15537SOL     OW46788   4.579   5.456   6.320 -0.2342 -0.5099 -0.1580
15537SOL    HW146789   4.505   5.461   6.252  0.0834  0.3188 -0.4656
15537SOL    HW246790   4.550   5.502   6.404 -0.7659 -1.8580  0.4255
15538SOL     OW46791   6.931   8.179   3.182 -0.1362  0.3344  0.3911
15538SOL    HW146792   6.878   8.262   3.167 -0.5442 -0.1366 -0.8748
15538SOL    HW246793   6.920   8.118   3.104  0.0182 -0.9884  1.3765
15539SOL     OW46794   1.224   1.320   4.037 -0.1912 -0.2403  0.1669
15539SOL    HW146795   1.205   1.343   4.132 -0.2975  0.8796 -0.1175
15539SOL    HW246796   1.319   1.341   4.015 -0.4005  0.3319 -0.2111
15540SOL     OW46797   4.864   1.695   4.272 -0.3322 -0.1244  0.2210
15540SOL    HW146798   4.927   1.745   4.213 -0.6539  1.1210  0.9108
15540SOL    HW246799   4.915   1.647   4.343 -0.1301  0.6305  0.5915
15541SOL     OW46800   7.960   0.173   6.014 -0.2210 -0.1670  0.5284
15541SOL    HW146801   8.056   0.152   5.995 -0.4072  0.2906 -1.0442
15541SOL    HW246802   7.939   0.150   6.109  1.8385  1.1454  1.3734
15542SOL     OW46803   7.773   6.110   4.229  0.0159 -0.4072  0.3115
15542SOL    HW146804   7.703   6.042   4.210  1.2394 -1.3368 -1.1199
15542SOL    HW246805   7.786   6.119   4.327 -2.5113  0.2704  0.6544
15543SOL     OW46806   3.684   7.575   1.052 -0.3658  0.1329  0.3881
15543SOL    HW146807   3.733   7.654   1.090  0.4208 -0.5438  0.8002
15543SOL    HW246808   3.628   7.533   1.124 -0.0486 -0.2492  0.4127
15544SOL     OW46809   8.429   8.095   2.956 -0.9822 -0.4081  0.1743
15544SOL    HW146810   8.350   8.120   3.013 -1.4440 -0.2090 -0.5366
15544SOL    HW246811   8.407   8.112   2.860  0.2164  0.4064  0.0189
15545SOL     OW46812   3.365   8.676   1.927 -0.1520  0.6053  0.7977
15545SOL    HW146813   3.295   8.740   1.897 -1.7060 -1.0971  0.6187
15545SOL    HW246814   3.373   8.602   1.861 -0.3409 -0.7883  2.2708
15546SOL     OW46815   0.707   6.370   3.663  0.1135 -0.0545  0.7693
15546SOL    HW146816   0.636   6.388   3.731 -0.0203 -0.0492  0.6305
15546SOL    HW246817   0.790   6.419   3.688 -0.7183  2.1683 -0.4484
15547SOL     OW46818   4.232   3.777   3.199 -0.0597  0.2137  0.2091
15547SOL    HW146819   4.297   3.830   3.252 -1.3248  0.0522  2.0153
15547SOL    HW246820   4.145   3.773   3.248 -1.0005 -0.7468 -1.4639
15548SOL     OW46821   2.825   6.893   2.949  0.2612 -0.4241  0.2915
15548SOL    HW146822   2.836   6.869   2.853 -0.2458 -0.6463  0.2886
15548SOL    HW246823   2.748   6.956   2.959 -0.2539 -1.1030  0.6594
15549SOL     OW46824   2.295   7.703   4.033  0.3019  0.0089  0.1988
15549SOL    HW146825   2.361   7.777   4.024 -0.0740  0.2780 -0.3399
15549SOL    HW246826   2.273   7.690   4.130  1.6021 -0.4933  0.4503
15550SOL     OW46827   6.928   8.292   7.888 -0.1525 -0.4611 -0.2400
15550SOL    HW146828   6.904   8.384   7.855 -1.6556 -1.2785 -1.5861
15550SOL    HW246829   6.844   8.241   7.905  0.6666 -1.8582 -0.2975
15551SOL     OW46830   0.939   5.178   4.053  0.5450  0.1813 -0.5959
15551SOL    HW146831   0.951   5.079   4.039 -0.9344 -0.1601  0.2684
15551SOL    HW246832   0.919   5.222   3.966 -3.1898 -1.0368 -0.5657
15552SOL     OW46833   0.218   2.135   4.126 -0.3808 -0.3049 -0.3447
15552SOL    HW146834   0.306   2.089   4.115  0.1124 -0.1193  2.2506
15552SOL    HW246835   0.194   2.139   4.223 -2.6534  0.8080 -0.8807
15553SOL     OW46836   8.379   0.969   0.537  0.3496  0.0403 -0.0728
15553SOL    HW146837   8.401   0.920   0.621  1.0746  0.7284  0.1507
15553SOL    HW246838   8.380   0.906   0.460 -1.4721 -0.8437  0.5615
15554SOL     OW46839   2.972   1.306   4.627 -0.7568 -0.2688 -0.8371
15554SOL    HW146840   2.981   1.396   4.584  1.1532 -0.1343 -0.2630
15554SOL    HW246841   3.022   1.305   4.714  0.0111 -2.1243 -1.2422
15555SOL     OW46842   3.754   1.467   1.875  0.4161  0.2266  0.8228
15555SOL    HW146843   3.732   1.434   1.783  1.0713 -1.6806  1.2915
15555SOL    HW246844   3.672   1.507   1.917 -0.0494  0.5354 -0.3469
15556SOL     OW46845   3.581   6.180   6.600 -0.4172 -0.3510 -0.1486
15556SOL    HW146846   3.536   6.117   6.665  0.3809 -1.7791 -0.9237
15556SOL    HW246847   3.676   6.193   6.627 -0.7461  1.1168  0.3880
15557SOL     OW46848   1.676   4.733   5.573 -0.2619 -0.2256  0.5401
15557SOL    HW146849   1.740   4.777   5.510 -0.8833  0.5799  0.4647
15557SOL    HW246850   1.722   4.715   5.660  0.3851 -0.6730  0.1193
15558SOL     OW46851   8.550   5.946   4.098 -0.0437  0.2688 -0.1367
15558SOL    HW146852   8.526   5.907   4.187  1.2033 -1.6178 -0.5570
15558SOL    HW246853   8.468   5.981   4.054 -1.0691 -0.8012  0.8426
15559SOL     OW46854   8.126   0.674   3.294  0.2200  0.0879 -0.2245
15559SOL    HW146855   8.100   0.595   3.237  0.4419 -0.4266  0.3736
15559SOL    HW246856   8.109   0.653   3.390 -1.8770  1.6290 -0.1967
15560SOL     OW46857   3.357   6.218   1.529 -0.2044 -0.5030 -0.2148
15560SOL    HW146858   3.427   6.223   1.458  0.6566 -1.1804  0.5524
15560SOL    HW246859   3.390   6.161   1.604  0.1901  2.5154  2.1166
15561SOL     OW46860   8.049   2.193   0.448  0.2706 -0.3219 -0.3443
15561SOL    HW146861   7.963   2.150   0.421  0.5898 -2.0506  1.1430
15561SOL    HW246862   8.050   2.205   0.548  0.5214  2.5767 -0.6307
15562SOL     OW46863   6.635   4.301   0.429  0.1732 -0.1260  0.4537
15562SOL    HW146864   6.715   4.286   0.372 -0.0671  0.3862 -0.0254
15562SOL    HW246865   6.646   4.386   0.481 -0.8977  1.0287 -1.1199
15563SOL     OW46866   2.365   8.450   4.001  0.9426  0.2030 -0.4211
15563SOL    HW146867   2.291   8.394   3.963  0.1686  1.8521 -1.4502
15563SOL    HW246868   2.453   8.415   3.968  0.5754 -1.1463 -0.0259
15564SOL     OW46869   7.082   0.244   6.181 -0.0315 -0.8556 -0.4791
15564SOL    HW146870   7.059   0.283   6.270  0.4085  0.7940 -1.0349
15564SOL    HW246871   7.178   0.214   6.182  0.0563 -0.5835 -0.4613
15565SOL     OW46872   5.223   7.545   0.207  0.5004  0.1122 -0.8885
15565SOL    HW146873   5.313   7.517   0.175  0.2947  0.2503 -1.5958
15565SOL    HW246874   5.215   7.645   0.202  0.7142  0.1989  0.2589
15566SOL     OW46875   4.406   7.884   5.715 -0.7267  0.3418 -0.6858
15566SOL    HW146876   4.487   7.849   5.668  0.4300  0.2809  1.2404
15566SOL    HW246877   4.351   7.808   5.749 -1.1453  0.3908 -1.2408
15567SOL     OW46878   7.722   1.315   1.503  0.3997  0.1539 -0.1309
15567SOL    HW146879   7.805   1.364   1.530  0.5563 -0.3767  0.3794
15567SOL    HW246880   7.643   1.376   1.510  0.6302  0.4154  0.1980
15568SOL     OW46881   2.396   0.441   2.632 -0.1751  0.1190 -0.6089
15568SOL    HW146882   2.492   0.413   2.630  0.3867  1.6607  1.2412
15568SOL    HW246883   2.338   0.360   2.642  1.1558 -0.6478  1.5888
15569SOL     OW46884   5.388   0.610   2.682  0.2494 -0.3106  0.2876
15569SOL    HW146885   5.409   0.688   2.623 -0.0397  0.4805  1.2028
15569SOL    HW246886   5.468   0.550   2.687  0.9276  0.5803  0.5570
15570SOL     OW46887   4.644   0.246   7.814 -0.3743 -0.3551  0.3800
15570SOL    HW146888   4.556   0.200   7.801 -0.9352  0.7114  0.3348
15570SOL    HW246889   4.690   0.255   7.725  0.1549 -1.6198  0.5103
15571SOL     OW46890   1.737   3.161   2.065 -0.3141 -0.1530 -0.1149
15571SOL    HW146891   1.815   3.180   2.005  0.7956 -1.2028  0.9229
15571SOL    HW246892   1.679   3.091   2.024 -0.0451 -0.2358 -0.3542
15572SOL     OW46893   4.354   0.618   8.654  0.1774  0.0120  0.9316
15572SOL    HW146894   4.411   0.695   8.684  0.8093 -0.6755  1.5465
15572SOL    HW246895   4.276   0.609   8.715 -0.9397  1.3053 -0.2404
15573SOL     OW46896   1.716   2.326   4.128  0.0601 -0.5319  0.0476
15573SOL    HW146897   1.653   2.296   4.056  0.5684 -0.6973 -0.3382
15573SOL    HW246898   1.738   2.248   4.187  1.2044 -0.8868 -0.8202
15574SOL     OW46899   0.209   4.782   2.273  0.3276 -0.0748  0.0691
15574SOL    HW146900   0.156   4.741   2.347  2.6620 -1.2145  1.2145
15574SOL    HW246901   0.147   4.811   2.200 -1.9533 -0.0241  1.8990
15575SOL     OW46902   2.385   8.552   5.882  0.4119 -0.3029 -0.3406
15575SOL    HW146903   2.315   8.528   5.949 -1.3308  1.7320 -1.3277
15575SOL    HW246904   2.344   8.604   5.807  2.8432  0.2026 -1.4352
15576SOL     OW46905   6.203   0.336   1.105  0.1949 -0.5701 -0.4731
15576SOL    HW146906   6.237   0.418   1.151  0.3651 -0.1365 -1.3373
15576SOL    HW246907   6.151   0.280   1.169  2.1950 -1.0779  0.8252
15577SOL     OW46908   8.246   8.786   1.048  0.6629 -0.0202  0.0101
15577SOL    HW146909   8.316   8.716   1.066  0.0984 -0.3376  1.0515
15577SOL    HW246910   8.192   8.802   1.131 -0.8649 -0.1853 -0.9068
15578SOL     OW46911   3.700   5.352   5.242 -0.1507  0.0073  0.5745
15578SOL    HW146912   3.625   5.327   5.181  0.1412 -0.0169  0.2151
15578SOL    HW246913   3.679   5.439   5.286  0.0697  0.5504 -0.3466
15579SOL     OW46914   5.756   6.716   1.661  0.1986  0.1208 -0.7536
15579SOL    HW146915   5.718   6.624   1.651 -1.4958  0.8031 -0.9286
15579SOL    HW246916   5.701   6.767   1.728 -0.6360  1.8887 -2.6852
15580SOL     OW46917   6.652   7.576   7.784 -0.9100  0.2677  0.1246
15580SOL    HW146918   6.610   7.603   7.697 -1.2738  1.0936  0.5385
15580SOL    HW246919   6.584   7.527   7.839  0.0246 -2.5126 -1.0184
15581SOL     OW46920   8.583   3.310   5.877 -0.6847  0.4339 -0.5916
15581SOL    HW146921   8.553   3.354   5.962  0.9430 -0.4504  0.4728
15581SOL    HW246922   8.523   3.233   5.857 -1.2166  0.7840 -0.3904
15582SOL     OW46923   7.091   2.250   3.224 -0.4628  0.1503  0.3301
15582SOL    HW146924   7.149   2.169   3.228 -2.8585 -1.8636 -1.8429
15582SOL    HW246925   7.147   2.331   3.208  1.8472 -1.3922  0.2137
15583SOL     OW46926   7.129   2.647   8.322  0.2385 -0.3971 -0.6860
15583SOL    HW146927   7.206   2.586   8.338 -1.4117 -2.4482 -0.0421
15583SOL    HW246928   7.102   2.642   8.226 -1.0359 -2.2704 -0.3017
15584SOL     OW46929   6.978   3.664   1.042 -0.0335  0.1818 -0.0869
15584SOL    HW146930   7.043   3.596   1.077  0.8085  0.9182 -0.1806
15584SOL    HW246931   6.911   3.686   1.113  0.5530  0.3008  0.4400
15585SOL     OW46932   6.951   8.504   3.371  0.7595 -0.0492  0.0067
15585SOL    HW146933   6.925   8.575   3.305  1.5147  1.3094  1.1100
15585SOL    HW246934   7.013   8.439   3.328  1.6427  1.1006 -0.5209
15586SOL     OW46935   4.202   7.837   0.748 -0.3545  0.0875  0.0621
15586SOL    HW146936   4.134   7.795   0.807 -2.1308  1.8739 -0.6079
15586SOL    HW246937   4.214   7.933   0.772  1.0892  0.1118 -0.5981
15587SOL     OW46938   2.586   0.095   7.547 -0.1387 -0.1230  0.3810
15587SOL    HW146939   2.596   0.113   7.449 -1.4557 -1.6834 -0.0772
15587SOL    HW246940   2.676   0.081   7.587  0.3452 -0.7561 -0.8782
15588SOL     OW46941   5.921   2.052   7.626 -0.4445 -0.4271 -0.3963
15588SOL    HW146942   5.983   1.974   7.617 -1.9437 -1.7664  0.4868
15588SOL    HW246943   5.946   2.105   7.707  0.0299 -0.4959 -0.4959
15589SOL     OW46944   6.918   8.485   0.683 -0.0983  0.0446 -0.2128
15589SOL    HW146945   6.832   8.534   0.696  1.2095  2.5671 -0.5296
15589SOL    HW246946   6.918   8.403   0.740 -2.8594 -0.2844 -0.5626
15590SOL     OW46947   5.981   2.143   7.180 -0.1734  0.3419  0.2509
15590SOL    HW146948   6.037   2.147   7.097  0.6029  0.7591  0.7746
15590SOL    HW246949   5.913   2.215   7.178 -1.0398 -0.4727 -0.6194
15591SOL     OW46950   3.319   4.760   6.823 -0.0169  0.2046  0.0174
15591SOL    HW146951   3.326   4.661   6.834 -2.9186  0.0423  1.2335
15591SOL    HW246952   3.250   4.782   6.754 -0.9563  1.3279  1.2589
15592SOL     OW46953   1.265   1.233   7.622  0.1967  0.2786  0.4275
15592SOL    HW146954   1.327   1.217   7.699  0.3094 -0.8809  0.1152
15592SOL    HW246955   1.290   1.318   7.576 -0.6479  1.6425  2.4037
15593SOL     OW46956   6.650   7.638   3.365 -0.3351 -0.4371 -0.2722
15593SOL    HW146957   6.740   7.636   3.410  0.3322  0.1567 -1.5256
15593SOL    HW246958   6.619   7.733   3.358  0.0226 -0.4102 -1.8684
15594SOL     OW46959   7.264   5.040   6.128  0.3510  0.1306  0.3087
15594SOL    HW146960   7.329   5.007   6.059  1.7779  1.5898  0.9017
15594SOL    HW246961   7.312   5.057   6.214 -1.0171  0.3260  1.0610
15595SOL     OW46962   4.777   1.458   1.992  0.5999 -0.2115 -0.2509
15595SOL    HW146963   4.827   1.447   1.906 -0.6990  0.0613 -1.0690
15595SOL    HW246964   4.696   1.399   1.991  1.8124 -2.0591  1.8124
15596SOL     OW46965   2.165   1.520   7.869  0.0437  0.3705  0.1034
15596SOL    HW146966   2.183   1.601   7.814  0.2729  1.1489  1.3017
15596SOL    HW246967   2.085   1.536   7.926 -0.4982 -0.6202 -0.3423
15597SOL     OW46968   0.216   8.229   2.371 -0.4260 -0.3525  0.0329
15597SOL    HW146969   0.231   8.210   2.469 -0.6908 -0.6174  0.0219
15597SOL    HW246970   0.297   8.201   2.320 -1.0417 -2.0946 -0.0657
15598SOL     OW46971   3.937   5.119   2.650  0.5166 -0.5154  0.4733
15598SOL    HW146972   3.877   5.199   2.657  0.5458 -0.2338 -1.6924
15598SOL    HW246973   3.909   5.049   2.716 -1.9004 -0.2097 -0.1541
15599SOL     OW46974   6.215   5.564   2.742  0.2195 -0.2572 -0.4404
15599SOL    HW146975   6.128   5.520   2.721  1.1310 -2.0853 -0.5549
15599SOL    HW246976   6.202   5.663   2.746 -1.8695 -0.5004 -0.3358
15600SOL     OW46977   6.021   5.317   3.853  0.0426 -0.1808 -0.2371
15600SOL    HW146978   6.037   5.276   3.763  0.2945  2.1332 -1.3102
15600SOL    HW246979   6.016   5.416   3.845 -0.5100  0.0752  2.2468
15601SOL     OW46980   8.834   3.210   5.659  0.1070 -0.2672 -0.3493
15601SOL    HW146981   8.819   3.112   5.673 -2.2064 -0.0736 -1.0352
15601SOL    HW246982   8.814   3.259   5.744  1.4891 -0.3684  0.0617
15602SOL     OW46983   5.021   6.383   4.417 -0.4475  0.1986 -0.1876
15602SOL    HW146984   5.074   6.458   4.455 -0.7122 -0.3374  1.3064
15602SOL    HW246985   5.077   6.332   4.351 -0.0915  1.3457 -0.7917
15603SOL     OW46986   1.418   7.676   2.988 -0.5925 -0.3167 -0.6803
15603SOL    HW146987   1.506   7.721   3.001  0.6021 -2.4726 -0.8195
15603SOL    HW246988   1.374   7.662   3.076 -0.0491 -0.6404 -0.4568
15604SOL     OW46989   6.842   2.468   4.017  0.3212  0.3395  0.2807
15604SOL    HW146990   6.798   2.558   4.024  1.1106  0.9862 -2.2000
15604SOL    HW246991   6.941   2.479   4.026  0.3210 -0.5849  1.8170
15605SOL     OW46992   4.807   0.768   1.522  0.1762  0.3017  0.1066
15605SOL    HW146993   4.718   0.771   1.568  0.4564  1.0992  0.6242
15605SOL    HW246994   4.847   0.859   1.522  0.8487  0.0125 -0.4172
15606SOL     OW46995   1.689   8.366   6.693  0.4664 -0.5036  0.2651
15606SOL    HW146996   1.660   8.432   6.624 -0.0368 -1.4488 -0.4640
15606SOL    HW246997   1.785   8.341   6.677  1.1333  1.1385  1.4610
15607SOL     OW46998   7.370   6.463   4.985 -0.5118 -0.0931 -0.0321
15607SOL    HW146999   7.367   6.558   5.018  1.3129  0.2771 -0.8029
15607SOL    HW247000   7.396   6.403   5.060 -1.2654  0.0618  0.3631
15608SOL     OW47001   4.422   5.246   3.673 -0.0545 -0.1833 -0.5015
15608SOL    HW147002   4.440   5.149   3.688 -0.9305 -0.2529  0.1832
15608SOL    HW247003   4.326   5.266   3.694 -0.6835  0.2851 -3.3301
15609SOL     OW47004   2.021   8.550   0.605  0.1067 -0.4902 -0.5536
15609SOL    HW147005   2.107   8.527   0.560  0.7000  2.4915 -1.1786
15609SOL    HW247006   2.022   8.515   0.699  2.3777  0.1689 -0.2660
15610SOL     OW47007   0.428   8.290   4.151 -0.6624 -0.4300  0.1148
15610SOL    HW147008   0.475   8.317   4.235  0.5523 -2.1964  0.0597
15610SOL    HW247009   0.396   8.371   4.103 -0.0747  0.6871  1.5450
15611SOL     OW47010   4.406   4.733   8.573  0.1516  0.3002 -0.4512
15611SOL    HW147011   4.335   4.704   8.636 -0.0338  0.7600 -0.4451
15611SOL    HW247012   4.491   4.684   8.593 -0.3184 -0.6909 -0.8515
15612SOL     OW47013   2.239   2.452   6.939  0.1300  0.4448 -0.4946
15612SOL    HW147014   2.253   2.541   6.896  1.0519  0.7288  0.3654
15612SOL    HW247015   2.270   2.455   7.034 -1.4123 -0.3120  0.0645
15613SOL     OW47016   6.766   3.646   5.347  0.3078 -0.3632 -0.1965
15613SOL    HW147017   6.718   3.617   5.264  0.4799 -1.4480  0.0705
15613SOL    HW247018   6.863   3.623   5.340  0.3640 -0.2574  0.2207
15614SOL     OW47019   2.286   6.194   4.559 -0.2768 -0.0268 -0.1592
15614SOL    HW147020   2.270   6.242   4.645  2.4968  0.9388 -0.0953
15614SOL    HW247021   2.332   6.107   4.577  3.0256  1.4872 -0.7116
15615SOL     OW47022   1.912   1.341   4.421 -0.1925  0.2117  0.0756
15615SOL    HW147023   1.853   1.261   4.433  0.2431 -0.3295 -1.2104
15615SOL    HW247024   1.994   1.331   4.476  0.3146 -0.7172 -0.8100
15616SOL     OW47025   6.547   6.511   0.897 -0.1764 -0.0724 -0.2254
15616SOL    HW147026   6.596   6.484   0.980  1.2250 -2.3498 -1.6761
15616SOL    HW247027   6.604   6.572   0.842  0.8567 -2.1054 -1.5439
15617SOL     OW47028   6.324   8.259   5.341  0.2193 -0.2982 -0.3561
15617SOL    HW147029   6.351   8.170   5.377 -2.0413 -0.7971  0.2848
15617SOL    HW247030   6.334   8.260   5.242 -0.5689 -1.6212 -0.4754
15618SOL     OW47031   3.760   5.495   0.095 -0.7862 -0.0920  0.2325
15618SOL    HW147032   3.698   5.560   0.140 -0.5922  0.3745 -0.1718
15618SOL    HW247033   3.762   5.514  -0.003  1.0513  0.8011  0.4033
15619SOL     OW47034   5.801   2.480   5.638 -0.1017  0.6292  0.6585
15619SOL    HW147035   5.758   2.477   5.548 -0.5938 -1.7667  0.8937
15619SOL    HW247036   5.742   2.529   5.702 -0.5501  0.8626  0.0686
15620SOL     OW47037   1.236   7.751   2.812  0.0679 -0.1790  0.1997
15620SOL    HW147038   1.317   7.716   2.860  0.5341  0.2680 -0.2494
15620SOL    HW247039   1.250   7.743   2.713 -0.9120 -1.1587  0.1130
15621SOL     OW47040   2.440   2.188   5.691 -0.5535 -0.2571 -0.1743
15621SOL    HW147041   2.417   2.211   5.786 -0.0717  0.7925 -0.3012
15621SOL    HW247042   2.496   2.261   5.652 -0.3205 -0.9291 -1.1094
15622SOL     OW47043   7.118   4.731   0.872  0.2766  0.6416 -0.0741
15622SOL    HW147044   7.191   4.777   0.821  1.8870 -0.6108  1.0294
15622SOL    HW247045   7.106   4.775   0.961  0.8272 -0.1814  0.4078
15623SOL     OW47046   4.939   3.204   1.390 -0.0075 -0.4451 -0.4629
15623SOL    HW147047   4.927   3.122   1.445 -1.3073  0.6475  0.9792
15623SOL    HW247048   4.862   3.266   1.404  0.2242  0.4363 -2.6137
15624SOL     OW47049   8.042   4.892   0.124 -0.0219 -0.0975  0.2364
15624SOL    HW147050   8.003   4.984   0.114  0.2657 -0.0262 -0.2990
15624SOL    HW247051   7.995   4.829   0.063 -0.2037 -0.3020  0.5870
15625SOL     OW47052   4.039   0.377   1.602 -0.3922 -0.1207  0.4161
15625SOL    HW147053   3.939   0.371   1.600 -0.7391  3.2133  1.3402
15625SOL    HW247054   4.071   0.368   1.696 -0.0638  0.9395  0.4184
15626SOL     OW47055   7.514   3.911   5.822 -0.5346 -0.2196 -0.2055
15626SOL    HW147056   7.542   3.833   5.767 -0.5834 -0.5520  0.2366
15626SOL    HW247057   7.581   3.927   5.894  0.0034  0.7815 -0.9088
15627SOL     OW47058   1.248   5.464   8.109 -0.4833 -0.0115 -0.0509
15627SOL    HW147059   1.261   5.407   8.028 -0.9075  1.6535 -1.3586
15627SOL    HW247060   1.207   5.410   8.182  2.3190 -2.2607  0.0358
15628SOL     OW47061   7.920   4.265   5.029 -0.8369 -0.0449  0.1661
15628SOL    HW147062   7.946   4.228   4.940 -2.0840 -1.9640  0.5370
15628SOL    HW247063   7.946   4.361   5.034  2.1138 -0.6715 -1.0632
15629SOL     OW47064   1.458   3.505   8.063 -0.4881 -0.3480  0.5792
15629SOL    HW147065   1.500   3.453   7.989  0.8269  1.3578  0.0692
15629SOL    HW247066   1.442   3.599   8.033  0.4052  0.4949  2.5600
15630SOL     OW47067   2.741   6.240   4.103 -0.5355 -0.0663  0.0525
15630SOL    HW147068   2.827   6.249   4.153  1.5444 -1.9660 -2.8874
15630SOL    HW247069   2.731   6.317   4.040 -0.9963  0.1215  0.3478
15631SOL     OW47070   2.971   1.444   5.322 -0.0232  0.0203  0.3030
15631SOL    HW147071   2.904   1.463   5.250  0.2108 -2.2324 -0.6131
15631SOL    HW247072   2.959   1.350   5.354  0.6427  0.6053  2.4201
15632SOL     OW47073   7.282   7.761   6.655  0.5304  0.3990  0.1657
15632SOL    HW147074   7.282   7.856   6.624  0.4337 -0.3168 -2.2703
15632SOL    HW247075   7.255   7.757   6.751 -1.6305  2.6585 -0.2412
15633SOL     OW47076   6.636   1.635   0.590 -0.6054  0.3675 -0.7067
15633SOL    HW147077   6.671   1.608   0.500 -1.4392  1.3365 -1.3332
15633SOL    HW247078   6.696   1.598   0.661  0.0000 -0.5084 -1.6468
15634SOL     OW47079   0.936   1.888   2.706  0.4041  0.1029  0.8215
15634SOL    HW147080   0.943   1.968   2.766 -0.7457 -0.8178  2.2559
15634SOL    HW247081   1.026   1.847   2.694  0.7574  0.7210  1.3184
15635SOL     OW47082   4.368   0.449   2.439  0.0119 -0.1075  0.3053
15635SOL    HW147083   4.425   0.529   2.419 -0.0196 -0.4335 -1.2426
15635SOL    HW247084   4.272   0.477   2.444  0.0306  0.0078  0.0648
15636SOL     OW47085   0.817   3.990   5.301 -0.3767 -0.1444  0.1073
15636SOL    HW147086   0.731   4.037   5.281 -0.2749 -0.4388 -1.1099
15636SOL    HW247087   0.819   3.902   5.254  0.2786 -0.4872  0.7469
15637SOL     OW47088   8.004   3.279   3.242  0.1480  0.2693  0.0939
15637SOL    HW147089   7.999   3.221   3.323 -1.0666  0.8233  0.4530
15637SOL    HW247090   7.953   3.237   3.167  0.1904  0.3612  0.0132
15638SOL     OW47091   1.756   3.687   8.015 -0.4663  0.1632  0.1714
15638SOL    HW147092   1.762   3.777   8.059 -0.0708 -0.5712  1.6853
15638SOL    HW247093   1.663   3.652   8.025 -0.7884  0.6453 -0.9654
15639SOL     OW47094   7.176   3.505   7.070 -0.1292  0.2988 -0.3527
15639SOL    HW147095   7.245   3.575   7.090  1.3496 -1.4391  0.9578
15639SOL    HW247096   7.115   3.495   7.148 -1.4700  1.2898 -1.2159
15640SOL     OW47097   4.537   6.134   5.074  0.3549  0.0105  0.0923
15640SOL    HW147098   4.496   6.160   4.987 -0.4229 -0.8875  0.1723
15640SOL    HW247099   4.480   6.166   5.150 -0.5457 -1.7327  0.1923
15641SOL     OW47100   3.757   4.561   1.938 -0.1790 -0.3580  0.2393
15641SOL    HW147101   3.776   4.608   2.024  0.0797  2.5890 -1.2956
15641SOL    HW247102   3.672   4.509   1.946 -0.3784  0.1800  2.1214
15642SOL     OW47103   4.074   3.607   5.974  0.0804  0.5102  0.2539
15642SOL    HW147104   4.144   3.562   6.030  0.6115  0.1894 -0.6484
15642SOL    HW247105   4.019   3.539   5.927 -1.3387  0.7307  1.4908
15643SOL     OW47106   0.753   6.824   5.994 -0.4178  0.3040  0.1744
15643SOL    HW147107   0.695   6.896   5.956  0.3676  0.4083 -0.8840
15643SOL    HW247108   0.842   6.863   6.018 -0.4261 -0.0627  0.8130
15644SOL     OW47109   8.521   4.184   0.736  0.0156  0.3888  0.4713
15644SOL    HW147110   8.616   4.200   0.764  0.2430 -1.4100  0.8497
15644SOL    HW247111   8.499   4.244   0.659  2.2210 -0.6962 -1.1530
15645SOL     OW47112   6.123   5.392   6.399  0.2190 -0.0339  0.1917
15645SOL    HW147113   6.198   5.375   6.462  0.7956  0.0591 -0.4538
15645SOL    HW247114   6.065   5.465   6.434  0.2144 -0.3655  0.8794
15646SOL     OW47115   3.206   3.821   4.779 -0.1312  0.3734 -0.3490
15646SOL    HW147116   3.140   3.758   4.739  0.7028 -0.3466 -0.6206
15646SOL    HW247117   3.205   3.810   4.879 -1.5469  1.5120 -0.2096
15647SOL     OW47118   1.619   7.502   4.651 -0.4895 -0.6624 -0.2311
15647SOL    HW147119   1.564   7.481   4.731  1.3419 -2.4839  0.6388
15647SOL    HW247120   1.655   7.417   4.612  1.7881  0.4233 -0.6598
15648SOL     OW47121   0.646   8.328   6.021 -0.0643 -0.7261 -0.3037
15648SOL    HW147122   0.604   8.354   6.107  0.4477 -0.3939 -0.1477
15648SOL    HW247123   0.588   8.357   5.945 -0.5948 -1.1635 -0.0690
15649SOL     OW47124   4.419   2.641   0.195 -0.1102  0.0581 -0.0135
15649SOL    HW147125   4.471   2.722   0.221 -0.0153 -0.1517  0.4530
15649SOL    HW247126   4.340   2.668   0.140 -2.1143  0.8327  3.0074
15650SOL     OW47127   2.659   4.407   4.532  0.4834 -0.2256  0.5666
15650SOL    HW147128   2.646   4.390   4.435 -0.0745  1.4791  0.3011
15650SOL    HW247129   2.655   4.321   4.582 -0.7082 -0.9782 -0.7475
15651SOL     OW47130   3.820   4.769   5.818  0.2924  0.4195  0.5739
15651SOL    HW147131   3.733   4.739   5.857  0.1337  0.0017 -0.1053
15651SOL    HW247132   3.875   4.690   5.792  1.5082  0.6312  2.3311
15652SOL     OW47133   6.466   5.048   5.697 -0.6914  0.5012  0.2881
15652SOL    HW147134   6.525   4.981   5.652 -1.2862 -0.2015  0.5420
15652SOL    HW247135   6.377   5.051   5.651 -1.5216 -0.6698  1.7502
15653SOL     OW47136   3.370   7.959   5.588  0.4612 -0.3505  0.2780
15653SOL    HW147137   3.372   7.947   5.688  1.3991  0.1825  0.3328
15653SOL    HW247138   3.440   7.901   5.546  0.8739  0.3113  0.0347
15654SOL     OW47139   7.744   3.297   5.443 -0.0118 -0.0733  0.0928
15654SOL    HW147140   7.704   3.236   5.511  2.1886 -2.4170 -0.5443
15654SOL    HW247141   7.720   3.265   5.351  3.7321 -2.2006 -0.3661
15655SOL     OW47142   6.458   7.509   1.094  0.0895  0.2150 -0.5541
15655SOL    HW147143   6.438   7.415   1.070 -0.8647  0.0974  0.6139
15655SOL    HW247144   6.555   7.529   1.075  0.6705 -1.4118  0.4716
15656SOL     OW47145   7.900   5.562   3.206 -0.0911 -0.6878  0.3377
15656SOL    HW147146   7.895   5.650   3.253  0.5157  0.0711 -0.9729
15656SOL    HW247147   7.911   5.489   3.273  1.7932  0.4408  1.3402
15657SOL     OW47148   6.234   0.410   4.813 -0.1507 -0.6819 -0.3982
15657SOL    HW147149   6.250   0.312   4.824 -1.0256 -0.6037  2.1911
15657SOL    HW247150   6.313   0.461   4.847  0.3015 -0.4495 -1.7336
15658SOL     OW47151   6.225   7.653   0.076  0.0159 -0.7427 -0.5127
15658SOL    HW147152   6.233   7.650  -0.024  0.7039 -3.0913 -0.4453
15658SOL    HW247153   6.301   7.604   0.117  0.4252  1.2542  1.2708
15659SOL     OW47154   3.777   8.383   2.950 -0.2090 -0.1587 -0.3626
15659SOL    HW147155   3.815   8.320   3.019 -0.8157  0.4819  0.5894
15659SOL    HW247156   3.833   8.465   2.945 -0.0562 -0.2871 -0.7867
15660SOL     OW47157   5.191   8.256   6.334  0.1239 -0.1054 -0.1722
15660SOL    HW147158   5.123   8.313   6.381  0.6134  0.9774 -0.7488
15660SOL    HW247159   5.237   8.310   6.264 -2.0524 -2.2028 -3.4914
15661SOL     OW47160   6.220   4.736   1.987 -0.4840  0.3650 -0.6061
15661SOL    HW147161   6.240   4.817   1.932 -0.0941  0.3806 -0.4477
15661SOL    HW247162   6.135   4.750   2.037 -1.4551 -0.1007 -2.0697
15662SOL     OW47163   8.068   7.511   2.785  0.0084  0.1904 -0.4886
15662SOL    HW147164   8.064   7.608   2.762  2.7689  0.3990 -0.3483
15662SOL    HW247165   8.114   7.461   2.713  1.2380 -0.5095  0.7339
15663SOL     OW47166   6.721   3.167   8.277 -0.0280  0.4017 -0.0201
15663SOL    HW147167   6.787   3.117   8.333 -1.1433 -0.7484  0.3037
15663SOL    HW247168   6.675   3.236   8.334 -0.2882  0.0663  0.1781
15664SOL     OW47169   1.305   2.963   6.755 -0.1675 -0.7792  0.1899
15664SOL    HW147170   1.383   3.017   6.786 -0.0143  0.0801 -1.5740
15664SOL    HW247171   1.265   2.916   6.833  0.0959  1.3441  1.6990
15665SOL     OW47172   3.021   0.939   1.446  0.3318 -0.1457  0.2653
15665SOL    HW147173   2.942   0.995   1.473  0.0348  0.6407 -2.0136
15665SOL    HW247174   2.988   0.854   1.405  0.5166  0.9190 -2.2727
15666SOL     OW47175   0.055   1.965   2.911 -0.0489 -0.1872  0.2898
15666SOL    HW147176   0.113   1.890   2.944  0.8295  0.6246  0.6604
15666SOL    HW247177   0.090   1.997   2.823 -1.7089 -1.5940 -0.9498
15667SOL     OW47178   5.164   8.414   5.629  0.1811 -0.0342  0.7110
15667SOL    HW147179   5.263   8.408   5.626  0.2750  0.4828  2.0105
15667SOL    HW247180   5.131   8.386   5.720 -0.8693 -0.3116  0.2644
15668SOL     OW47181   7.457   1.249   7.416  0.2356 -0.0554 -0.1715
15668SOL    HW147182   7.530   1.292   7.469  0.4326 -0.2633 -0.2737
15668SOL    HW247183   7.372   1.301   7.428  0.9415  1.6312 -1.9830
15669SOL     OW47184   1.343   5.749   3.039 -0.2180 -0.2983  0.1418
15669SOL    HW147185   1.262   5.796   3.003  0.1113 -0.1683 -0.4253
15669SOL    HW247186   1.359   5.666   2.987  1.4114  0.8794 -1.3378
15670SOL     OW47187   5.036   2.732   3.355  0.2709  0.1496 -0.2016
15670SOL    HW147188   4.976   2.810   3.339 -1.8084 -1.3413 -0.0494
15670SOL    HW247189   5.069   2.696   3.267 -1.8742 -1.0754 -0.5634
15671SOL     OW47190   5.870   0.813   0.811  0.1931  0.0408  0.4715
15671SOL    HW147191   5.773   0.799   0.791  0.0991  0.4011  0.6611
15671SOL    HW247192   5.882   0.826   0.909  0.2249  1.5267  0.3031
15672SOL     OW47193   1.803   4.384   3.087  0.7165  0.1342 -0.5353
15672SOL    HW147194   1.896   4.356   3.111  1.2531  0.5696 -1.9903
15672SOL    HW247195   1.740   4.358   3.160  2.1309  0.7403  0.9564
15673SOL     OW47196   2.981   6.904   8.202 -0.4247 -0.0324  0.9246
15673SOL    HW147197   2.896   6.938   8.161 -0.5714 -0.2754  1.0277
15673SOL    HW247198   3.058   6.959   8.169 -0.8353  1.5014  2.3673
15674SOL     OW47199   4.224   5.173   8.621 -0.3749  0.7990  0.3185
15674SOL    HW147200   4.293   5.171   8.694 -0.7795  0.3776  0.6939
15674SOL    HW247201   4.266   5.143   8.536 -0.7340 -2.2992  1.1191
15675SOL     OW47202   0.951   4.005   2.177  0.4723 -0.4338  0.6345
15675SOL    HW147203   0.993   4.045   2.095  0.8057  0.9460  1.4387
15675SOL    HW247204   0.941   3.906   2.165  4.4949 -0.9963  0.5659
15676SOL     OW47205   4.612   0.188   7.354  0.6360 -0.7493 -0.0395
15676SOL    HW147206   4.601   0.281   7.320 -1.1362 -1.3721 -1.3208
15676SOL    HW247207   4.665   0.134   7.288  2.5653 -0.4234  1.1866
15677SOL     OW47208   3.218   5.125   1.751  0.0593  0.8424  0.4370
15677SOL    HW147209   3.229   5.057   1.679  0.4873  0.5311  0.7953
15677SOL    HW247210   3.236   5.083   1.840 -0.9607  1.0893  0.7787
15678SOL     OW47211   2.774   8.670   6.503  0.6748  0.1747 -0.0937
15678SOL    HW147212   2.863   8.666   6.548  0.6920 -0.8814 -0.2151
15678SOL    HW247213   2.779   8.735   6.427  2.0010 -1.4672 -1.5002
15679SOL     OW47214   0.310   8.060   2.918 -0.0936  0.3857 -0.2792
15679SOL    HW147215   0.221   8.099   2.941  1.1851  3.3096  0.1329
15679SOL    HW247216   0.365   8.049   3.001  0.2162 -0.6870 -0.6088
15680SOL     OW47217   2.216   6.462   5.775  0.1175 -0.2587 -0.1309
15680SOL    HW147218   2.272   6.379   5.767 -0.5354 -0.8620  1.1714
15680SOL    HW247219   2.120   6.436   5.786  0.0076  0.6221  1.2690
15681SOL     OW47220   0.831   5.217   8.214 -0.0521  0.4580  0.7989
15681SOL    HW147221   0.901   5.146   8.222 -0.6483 -0.0140  2.0920
15681SOL    HW247222   0.785   5.229   8.302 -0.7984  1.5935  0.2805
15682SOL     OW47223   6.945   2.688   8.522  0.3812  0.0950  0.6500
15682SOL    HW147224   6.851   2.669   8.491 -0.4611  2.3277  1.6101
15682SOL    HW247225   7.009   2.666   8.448 -0.9658 -0.6628 -0.3516
15683SOL     OW47226   0.352   2.504   5.968  0.1332  0.1506  0.0500
15683SOL    HW147227   0.320   2.482   5.876 -0.0241  0.4633  0.0321
15683SOL    HW247228   0.303   2.583   6.003  0.7637  0.5253  0.0916
15684SOL     OW47229   0.241   8.523   6.552 -0.0534  0.2619 -0.4384
15684SOL    HW147230   0.250   8.538   6.454  0.9749  0.1401 -0.3779
15684SOL    HW247231   0.313   8.575   6.600  0.1711 -0.5738  0.1543
15685SOL     OW47232   5.231   8.820   7.340 -0.1953 -0.9411  0.4529
15685SOL    HW147233   5.275   8.785   7.257 -1.2752 -1.1255 -0.0502
15685SOL    HW247234   5.255   8.916   7.352 -0.7791 -0.6494 -0.6047
15686SOL     OW47235   5.953   7.394   6.826  0.2803 -0.4638 -0.2784
15686SOL    HW147236   5.988   7.309   6.864 -1.2805 -0.2604  1.7514
15686SOL    HW247237   5.854   7.387   6.812 -0.3272  1.7212  2.1909
15687SOL     OW47238   5.825   1.777   0.099  0.0931  0.2159  0.3632
15687SOL    HW147239   5.891   1.823   0.158  0.0977  0.4331  0.1881
15687SOL    HW247240   5.817   1.681   0.127  0.8063  0.0750  0.1065
15688SOL     OW47241   5.850   0.373   5.659 -0.0638  0.3537  0.0331
15688SOL    HW147242   5.837   0.343   5.754 -0.3363  0.2502 -0.0357
15688SOL    HW247243   5.761   0.375   5.613  0.1091  0.1163 -0.3089
15689SOL     OW47244   3.416   1.585   4.990 -0.9169  0.1646  0.2956
15689SOL    HW147245   3.324   1.569   5.024 -1.1694  1.8620  0.4992
15689SOL    HW247246   3.476   1.610   5.066  0.0095 -1.9318  0.3337
15690SOL     OW47247   3.288   4.289   2.427  0.0361  0.1388 -0.0203
15690SOL    HW147248   3.345   4.225   2.478  1.6519  1.2348 -0.3602
15690SOL    HW247249   3.221   4.238   2.373  1.6555 -1.3380 -0.7567
15691SOL     OW47250   2.293   2.983   6.644 -0.5130  0.2004 -0.7232
15691SOL    HW147251   2.282   2.909   6.710 -0.3803 -0.0753 -1.0050
15691SOL    HW247252   2.208   3.036   6.640 -1.1136 -0.7578 -1.4872
15692SOL     OW47253   1.575   8.076   2.906 -0.2450 -0.4650 -0.6665
15692SOL    HW147254   1.502   8.097   2.971 -1.6609  0.7980 -2.5598
15692SOL    HW247255   1.593   7.978   2.907 -1.6015 -0.7410  0.2307
15693SOL     OW47256   6.746   1.887   6.905  0.6975  0.2977  0.0035
15693SOL    HW147257   6.687   1.936   6.841  1.0738  0.3372 -0.3197
15693SOL    HW247258   6.836   1.933   6.909  0.6613  0.3262  0.5978
15694SOL     OW47259   3.539   8.123   5.069  0.0726 -0.0277 -0.5032
15694SOL    HW147260   3.591   8.075   4.998  0.0147 -1.2160  0.2265
15694SOL    HW247261   3.441   8.109   5.053  0.0657 -0.8048  0.1091
15695SOL     OW47262   1.249   3.789   0.429 -0.0739 -0.1254  0.2990
15695SOL    HW147263   1.213   3.719   0.368 -0.2401  0.7644 -0.6603
15695SOL    HW247264   1.210   3.778   0.520 -1.1651 -0.4381 -0.1931
15696SOL     OW47265   8.190   4.947   5.876 -0.1012 -0.1578  0.4124
15696SOL    HW147266   8.150   4.920   5.963 -1.4207 -2.2991 -0.7612
15696SOL    HW247267   8.122   4.939   5.803  1.7310 -1.5798 -1.2956
15697SOL     OW47268   2.693   1.354   2.603  0.0940  0.3435 -0.6989
15697SOL    HW147269   2.777   1.371   2.552 -0.3802  0.4223 -1.4585
15697SOL    HW247270   2.669   1.435   2.657  0.5443  0.2902 -0.4115
15698SOL     OW47271   2.066   7.474   5.305 -0.5283  0.0852  0.4010
15698SOL    HW147272   2.037   7.383   5.336 -0.6685  0.8463  2.7039
15698SOL    HW247273   2.154   7.496   5.347 -1.2260  1.6018  1.1445
15699SOL     OW47274   1.096   3.604   5.434 -0.1711 -0.1031 -0.3118
15699SOL    HW147275   1.091   3.703   5.424 -3.0767 -0.1170  0.2025
15699SOL    HW247276   1.172   3.580   5.494 -0.3289  1.9326  0.7680
15700SOL     OW47277   5.597   1.489   5.645  0.4361  0.5801  0.2314
15700SOL    HW147278   5.631   1.437   5.567 -0.0277  2.4543 -1.2867
15700SOL    HW247279   5.674   1.526   5.696  0.7552 -1.0405  0.9871
15701SOL     OW47280   3.926   2.563   2.823  0.4449  0.8204 -0.0909
15701SOL    HW147281   3.995   2.583   2.893  1.3168  1.0228 -0.9719
15701SOL    HW247282   3.856   2.504   2.861  1.1314  0.5712  0.8307
15702SOL     OW47283   2.361   2.385   8.680 -0.3784 -0.4231 -0.3892
15702SOL    HW147284   2.412   2.382   8.594  1.8882  0.6719  0.8053
15702SOL    HW247285   2.317   2.297   8.696  2.5572 -2.1057 -0.7810
15703SOL     OW47286   6.053   2.850   6.463  0.3099  0.4752 -0.1748
15703SOL    HW147287   5.979   2.901   6.508 -0.7053 -1.5255  0.5431
15703SOL    HW247288   6.041   2.856   6.364 -0.4786  0.6746 -0.0771
15704SOL     OW47289   2.218   8.285   4.580  0.2853  0.9624  0.6015
15704SOL    HW147290   2.285   8.359   4.584  0.5891  0.6455  1.6614
15704SOL    HW247291   2.127   8.323   4.565  0.5556  1.4708  0.2231
15705SOL     OW47292   4.222   5.542   5.885  0.0967  0.0865  0.2713
15705SOL    HW147293   4.247   5.528   5.789  0.0413  2.3779 -0.1347
15705SOL    HW247294   4.211   5.640   5.903  1.1530 -0.1897  2.9042
15706SOL     OW47295   0.694   3.642   0.741  0.1305 -0.1946 -0.4254
15706SOL    HW147296   0.743   3.607   0.661 -1.7181 -1.5174 -1.0516
15706SOL    HW247297   0.596   3.630   0.728 -0.2122 -1.6004  2.5511
15707SOL     OW47298   7.668   0.798   5.573  0.2381 -0.4175 -0.1836
15707SOL    HW147299   7.753   0.819   5.524  0.6267 -2.0578 -0.2584
15707SOL    HW247300   7.657   0.699   5.579 -1.7499 -0.2393 -0.2975
15708SOL     OW47301   7.013   2.693   2.330  0.1846 -0.5109 -0.0648
15708SOL    HW147302   7.037   2.734   2.242  0.6536 -0.6681 -0.0093
15708SOL    HW247303   7.010   2.764   2.401 -0.0589 -0.4068 -0.1768
15709SOL     OW47304   5.900   0.018   2.922 -0.0269 -0.1641 -0.0319
15709SOL    HW147305   5.999   0.024   2.914  0.0008 -1.1232 -0.5389
15709SOL    HW247306   5.869  -0.071   2.887 -1.1687  0.5329 -0.8264
15710SOL     OW47307   6.916   6.626   8.504 -0.2004 -0.3995 -0.5461
15710SOL    HW147308   6.979   6.685   8.555  2.9247 -0.5519 -3.8492
15710SOL    HW247309   6.927   6.531   8.534  0.2310 -0.2480 -0.2189
15711SOL     OW47310   4.880   2.186   6.479 -0.5860  0.0530  0.1825
15711SOL    HW147311   4.889   2.158   6.575  2.6504  1.9469  0.5648
15711SOL    HW247312   4.936   2.128   6.422  1.1622  1.6796  0.1436
15712SOL     OW47313   1.392   0.390   2.420  0.2135 -0.7148 -0.2846
15712SOL    HW147314   1.298   0.423   2.434  0.0194 -2.0652  2.3509
15712SOL    HW247315   1.396   0.336   2.336 -1.8814 -2.1617  0.4566
15713SOL     OW47316   5.880   7.257   7.328  0.1499 -0.1378  0.6836
15713SOL    HW147317   5.961   7.276   7.384  0.0380  1.4650  0.3275
15713SOL    HW247318   5.848   7.341   7.284 -0.3795 -1.1669 -0.9989
15714SOL     OW47319   8.494   8.182   7.993  0.0749 -0.5970  0.4864
15714SOL    HW147320   8.485   8.092   7.951 -0.5332 -0.0373 -0.6205
15714SOL    HW247321   8.438   8.186   8.076 -0.3736 -1.0446  0.2078
15715SOL     OW47322   5.605   0.939   0.883  0.4421 -0.0442  0.4598
15715SOL    HW147323   5.568   0.937   0.790  0.4712 -1.2101  0.4556
15715SOL    HW247324   5.649   1.027   0.899 -0.2916  0.4864 -0.3366
15716SOL     OW47325   0.933   4.681   5.651  0.1962  0.7942  0.2647
15716SOL    HW147326   0.969   4.588   5.655 -0.3807  0.5700  0.3001
15716SOL    HW247327   0.848   4.687   5.703  0.7272  1.5762  1.0685
15717SOL     OW47328   6.405   7.993   4.437 -0.3283  0.1738 -0.0940
15717SOL    HW147329   6.440   7.982   4.344 -1.8032 -0.2453 -0.6244
15717SOL    HW247330   6.438   7.917   4.493  1.6420  1.1128  0.1104
15718SOL     OW47331   1.579   8.780   3.011 -0.0805  0.3393 -0.4283
15718SOL    HW147332   1.499   8.806   3.066  1.1701 -0.3607  1.8623
15718SOL    HW247333   1.554   8.778   2.914 -2.9834 -0.3622  0.2359
15719SOL     OW47334   6.159   1.822   5.377 -0.9758 -0.4195  0.3075
15719SOL    HW147335   6.091   1.889   5.347 -1.0476 -1.3313 -1.7031
15719SOL    HW247336   6.202   1.780   5.298  0.2823 -1.5637  1.5373
15720SOL     OW47337   2.811   6.709   3.740 -0.0413  0.1681  0.0424
15720SOL    HW147338   2.714   6.683   3.746  0.2200 -0.6814  0.7386
15720SOL    HW247339   2.848   6.721   3.832  0.4896  0.6228 -0.2232
15721SOL     OW47340   1.072   5.558   4.971 -0.6088 -0.4486 -0.5256
15721SOL    HW147341   1.095   5.577   4.876 -0.2760  0.3039 -0.2942
15721SOL    HW247342   1.067   5.459   4.984  0.5890 -0.5903 -1.0309
15722SOL     OW47343   0.770   0.615   4.512  0.4239 -0.0634 -0.0490
15722SOL    HW147344   0.745   0.580   4.603 -2.4480  2.1107  0.1364
15722SOL    HW247345   0.835   0.690   4.522  0.4667 -0.1317  0.1902
15723SOL     OW47346   5.026   6.570   2.206  0.0987 -0.3215  0.2008
15723SOL    HW147347   4.954   6.519   2.159  0.0774  0.5561 -0.7578
15723SOL    HW247348   5.090   6.607   2.139  0.8935 -0.2446  0.9724
15724SOL     OW47349   5.950   4.948   6.015  0.0844  0.2493 -0.2227
15724SOL    HW147350   5.993   4.912   6.098 -0.2208  1.2131  0.3649
15724SOL    HW247351   5.866   4.897   5.996 -0.2619  0.5379  0.5148
15725SOL     OW47352   3.038   6.695   0.053  0.6542  0.3081  0.3080
15725SOL    HW147353   2.951   6.737   0.078  0.5612  2.0819 -2.5089
15725SOL    HW247354   3.034   6.596   0.070 -1.5438  0.4821  1.0729
15726SOL     OW47355   5.400   7.830   5.881  0.6925 -0.3104 -0.1007
15726SOL    HW147356   5.421   7.747   5.933 -0.9946 -0.9358 -0.3281
15726SOL    HW247357   5.368   7.804   5.790  1.4645  0.6664 -0.6616
15727SOL     OW47358   2.202   1.678   8.761 -0.1446  0.2167 -0.0850
15727SOL    HW147359   2.172   1.735   8.684 -0.4485 -0.4243 -0.4420
15727SOL    HW247360   2.209   1.583   8.732 -0.3873 -0.0533  0.7139
15728SOL     OW47361   7.222   3.709   5.406 -0.2694  0.4759  0.1350
15728SOL    HW147362   7.287   3.699   5.481  0.5588 -1.3232 -0.7846
15728SOL    HW247363   7.155   3.635   5.409 -0.1669  0.3208 -0.9566
15729SOL     OW47364   3.831   3.978   0.638 -0.0924 -0.3567  0.0072
15729SOL    HW147365   3.733   3.962   0.645  0.2347 -2.8622 -0.1870
15729SOL    HW247366   3.874   3.965   0.728  0.0669  0.9802  0.1469
15730SOL     OW47367   5.016   5.680   2.310 -0.9272 -0.1389  0.9611
15730SOL    HW147368   5.087   5.628   2.262 -1.2321  0.7660 -0.5183
15730SOL    HW247369   4.936   5.689   2.251 -1.1800  1.3125  1.4934
15731SOL     OW47370   5.011   5.239   3.201 -0.1944  0.0987 -0.7151
15731SOL    HW147371   5.107   5.246   3.227 -0.2185 -0.6278 -0.3907
15731SOL    HW247372   4.972   5.156   3.242 -0.7747  0.0267 -1.3956
15732SOL     OW47373   0.867   7.267   6.692  0.3565 -0.4178  0.8053
15732SOL    HW147374   0.801   7.300   6.758  1.6103 -0.0832  1.9375
15732SOL    HW247375   0.878   7.334   6.618 -1.3973 -1.0096 -0.0329
15733SOL     OW47376   4.029   6.326   4.117  0.0603  0.5003  0.0291
15733SOL    HW147377   4.002   6.230   4.119  1.4216  0.0967  0.5779
15733SOL    HW247378   4.085   6.343   4.035  0.4911  0.6226  0.3462
15734SOL     OW47379   7.614   3.337   2.081 -0.3607  0.1104  0.3178
15734SOL    HW147380   7.588   3.277   2.158 -0.5735  2.5215  2.2506
15734SOL    HW247381   7.532   3.359   2.028 -0.5907  0.1013  0.6629
15735SOL     OW47382   7.463   3.137   1.203  0.0505 -0.2508  0.9748
15735SOL    HW147383   7.376   3.091   1.220 -0.1337 -0.2994 -0.0461
15735SOL    HW247384   7.446   3.230   1.172  0.1782 -1.2632 -2.5336
15736SOL     OW47385   6.907   3.391   0.503 -0.2092 -0.1482  0.1847
15736SOL    HW147386   6.812   3.364   0.519  0.1210 -0.7284  1.2721
15736SOL    HW247387   6.909   3.473   0.445 -1.4118  0.5993  1.1498
15737SOL     OW47388   8.761   3.646   1.365 -0.6555 -0.2596 -0.2355
15737SOL    HW147389   8.704   3.565   1.356 -0.9588 -0.0031 -0.6780
15737SOL    HW247390   8.719   3.709   1.430 -0.6347 -0.2740 -0.2079
15738SOL     OW47391   2.194   8.057   1.545  0.8629 -0.5704  0.5188
15738SOL    HW147392   2.282   8.040   1.590  1.6504 -3.8355 -1.8544
15738SOL    HW247393   2.128   7.987   1.574 -0.2064  0.3601  0.3986
15739SOL     OW47394   2.879   7.148   1.601  0.2902 -0.0722 -0.6656
15739SOL    HW147395   2.876   7.166   1.503  1.5743  0.0547 -0.7008
15739SOL    HW247396   2.804   7.088   1.626  0.2389 -0.5196 -1.8192
15740SOL     OW47397   4.441   6.466   7.034  0.6824 -0.7992 -0.0422
15740SOL    HW147398   4.453   6.417   6.948  3.0313 -0.2955 -0.0708
15740SOL    HW247399   4.372   6.420   7.090 -3.4162  0.6751 -3.4120
15741SOL     OW47400   4.182   4.871   4.102  0.3531 -0.2305  0.2955
15741SOL    HW147401   4.185   4.835   4.195 -1.5820 -1.3401 -0.0302
15741SOL    HW247402   4.091   4.906   4.082  1.0575  1.0907 -0.8128
15742SOL     OW47403   4.654   0.876   6.450  0.0220  0.1790 -0.2005
15742SOL    HW147404   4.685   0.802   6.510  0.2193  0.5452  0.1519
15742SOL    HW247405   4.713   0.956   6.462  1.3175 -0.3772 -2.3328
15743SOL     OW47406   6.298   1.154   7.794  0.2387  0.2112 -0.0243
15743SOL    HW147407   6.275   1.237   7.743 -0.0157  0.3775  0.3564
15743SOL    HW247408   6.394   1.158   7.823  0.2883  0.2695 -0.1964
15744SOL     OW47409   5.810   7.975   6.549 -0.2828 -0.4662 -0.0801
15744SOL    HW147410   5.717   8.013   6.548 -0.1760 -0.1523  0.7040
15744SOL    HW247411   5.875   8.045   6.519 -0.2138 -0.4012  0.2135
15745SOL     OW47412   4.132   8.694   8.680 -0.8880 -0.5979  0.1406
15745SOL    HW147413   4.105   8.785   8.711  0.4948  0.2008 -0.8970
15745SOL    HW247414   4.170   8.643   8.756  1.7366  1.0502  0.0477
15746SOL     OW47415   0.015   5.611   5.988 -0.1036 -0.1849  0.9456
15746SOL    HW147416  -0.034   5.697   6.002  0.6226  0.2079  1.1090
15746SOL    HW247417   0.112   5.624   6.008 -0.0951 -1.2225  1.6619
15747SOL     OW47418   6.476   1.251   1.661 -0.2828  0.2226  0.6599
15747SOL    HW147419   6.470   1.204   1.749  0.7826  0.0311  0.6399
15747SOL    HW247420   6.447   1.189   1.588  1.0160 -0.3994  0.6449
15748SOL     OW47421   2.620   6.865   4.532  0.6382  0.4156 -0.1196
15748SOL    HW147422   2.689   6.872   4.460  0.6085  1.2531 -0.0862
15748SOL    HW247423   2.614   6.771   4.565  2.8472  0.6070  0.9603
15749SOL     OW47424   7.095   6.008   3.020 -0.1334 -0.1984  0.3062
15749SOL    HW147425   7.007   6.053   3.005 -0.4086 -0.7937  0.0892
15749SOL    HW247426   7.168   6.064   2.980 -0.6460 -0.7818 -1.5761
15750SOL     OW47427   0.487   0.499   8.055 -0.1934  0.4603  0.4679
15750SOL    HW147428   0.577   0.526   8.019 -0.6711  1.2579 -0.1755
15750SOL    HW247429   0.452   0.571   8.115 -0.6524  0.4230  0.2510
15751SOL     OW47430   6.421   7.083   5.773 -0.5193  0.3373  0.5363
15751SOL    HW147431   6.469   7.160   5.815  0.1263 -0.0915  0.6014
15751SOL    HW247432   6.474   6.999   5.787 -1.6014 -0.2602  1.1534
15752SOL     OW47433   2.271   2.183   3.716 -0.3296  0.0526  0.1290
15752SOL    HW147434   2.192   2.227   3.758  0.0359 -1.4421  2.5723
15752SOL    HW247435   2.242   2.098   3.672  0.0158 -1.1555  2.1263
15753SOL     OW47436   0.881   5.393   3.849  0.3948 -0.0247 -0.0873
15753SOL    HW147437   0.818   5.434   3.915  1.8271  0.9952  0.6956
15753SOL    HW247438   0.831   5.371   3.765 -0.6235  2.6908 -0.3027
15754SOL     OW47439   0.684   0.450   0.858 -0.2886  0.0343 -0.0769
15754SOL    HW147440   0.758   0.467   0.923  0.0551  1.1654 -0.7386
15754SOL    HW247441   0.662   0.534   0.809 -0.5348 -0.7907 -1.4406
15755SOL     OW47442   8.270   3.382   5.963  0.2972 -0.0720 -0.6442
15755SOL    HW147443   8.341   3.421   6.022 -1.4394  3.5602 -0.6876
15755SOL    HW247444   8.220   3.312   6.013  3.4849 -2.4586 -0.4844
15756SOL     OW47445   5.181   3.063   3.160  0.1690  0.4041 -0.3620
15756SOL    HW147446   5.151   3.159   3.165  1.4223  0.8175 -0.5057
15756SOL    HW247447   5.201   3.029   3.252 -1.4601 -0.1428 -0.1664
15757SOL     OW47448   1.109   7.593   3.053  0.2360  0.2150 -0.6060
15757SOL    HW147449   1.187   7.557   3.103 -0.0964  0.0777 -0.1883
15757SOL    HW247450   1.141   7.656   2.982  0.6807  0.8664  0.1548
15758SOL     OW47451   6.952   6.281   7.479  0.1377  0.2696  0.0296
15758SOL    HW147452   6.901   6.359   7.514 -1.2044  0.4725 -2.2113
15758SOL    HW247453   7.018   6.313   7.411  2.1091 -0.2032  1.6186
15759SOL     OW47454   5.181   1.804   7.063 -0.0098  0.2207 -0.0538
15759SOL    HW147455   5.083   1.811   7.045 -0.4279 -1.6982  1.2146
15759SOL    HW247456   5.229   1.785   6.977 -0.8537  0.1427 -0.5269
15760SOL     OW47457   8.475   3.557   1.450 -0.1164  0.4395 -0.5659
15760SOL    HW147458   8.529   3.476   1.429  0.0085 -0.0284  1.3429
15760SOL    HW247459   8.444   3.552   1.545 -1.9495  1.5937 -1.0518
15761SOL     OW47460   3.611   4.202   5.206  0.3218  0.5474  0.3740
15761SOL    HW147461   3.597   4.274   5.138  1.1427  1.4250  1.1054
15761SOL    HW247462   3.622   4.244   5.297  1.3777 -0.4585  0.7271
15762SOL     OW47463   0.636   6.583   1.532  0.0857 -0.3044  0.0420
15762SOL    HW147464   0.554   6.533   1.504  0.0499  0.2280 -0.8516
15762SOL    HW247465   0.680   6.535   1.608 -1.9308  0.2335  1.6416
15763SOL     OW47466   0.857   4.858   4.527  0.3873  0.6123  0.0200
15763SOL    HW147467   0.845   4.835   4.624  2.2596 -1.7855 -0.2218
15763SOL    HW247468   0.768   4.880   4.487 -0.6330  0.2398  1.9222
15764SOL     OW47469   8.838   1.970   6.779 -0.6987  0.0086 -0.3921
15764SOL    HW147470   8.919   1.912   6.771  1.0298  2.0639  1.0656
15764SOL    HW247471   8.759   1.914   6.802  0.7659 -1.8409  0.3851
15765SOL     OW47472   5.828   5.181   3.995 -0.5397 -0.1965 -0.1718
15765SOL    HW147473   5.893   5.236   3.942  2.1822  0.2384  3.2800
15765SOL    HW247474   5.771   5.241   4.052  0.7675 -0.7398  1.8013
15766SOL     OW47475   7.001   0.788   5.849  0.0378 -0.1491 -0.5306
15766SOL    HW147476   6.957   0.778   5.938 -1.1500  1.1036 -0.9479
15766SOL    HW247477   6.948   0.739   5.779  0.6630 -0.6652 -0.6615
15767SOL     OW47478   4.934   0.582   3.821  1.2216 -0.4905 -0.1968
15767SOL    HW147479   4.955   0.495   3.867 -0.2825 -1.0513 -0.4998
15767SOL    HW247480   4.887   0.563   3.735  0.8517  0.6256 -0.2549
15768SOL     OW47481   6.964   5.620   4.064  0.3044 -0.2518  1.2125
15768SOL    HW147482   7.026   5.679   4.116 -0.1829 -0.7196  2.3601
15768SOL    HW247483   7.012   5.584   3.984  0.2457  2.6930 -0.2823
15769SOL     OW47484   8.441   6.042   0.368  0.8207 -0.0333 -0.0688
15769SOL    HW147485   8.396   6.014   0.284 -0.1393  2.4357 -0.4764
15769SOL    HW247486   8.383   6.019   0.447  1.2774 -1.4692 -0.1204
15770SOL     OW47487   2.398   7.267   4.421 -0.2229  0.4048 -0.1986
15770SOL    HW147488   2.313   7.311   4.394  0.1500  1.8555  0.9206
15770SOL    HW247489   2.406   7.267   4.520  0.1867 -1.4903 -0.1907
15771SOL     OW47490   1.466   1.215   5.142 -0.3791 -0.3282 -0.7046
15771SOL    HW147491   1.441   1.312   5.137  2.1115  0.5321  1.4715
15771SOL    HW247492   1.453   1.183   5.235  0.7427 -1.5220 -0.9372
15772SOL     OW47493   7.194   5.546   5.769  0.2512  0.4777  0.2336
15772SOL    HW147494   7.229   5.629   5.812  0.2414  0.5951  0.0185
15772SOL    HW247495   7.255   5.470   5.790 -0.8620  0.0675  2.2095
15773SOL     OW47496   3.207   5.764   8.688  0.3271  0.2566  0.2737
15773SOL    HW147497   3.218   5.674   8.731 -1.2936 -1.5470 -2.7615
15773SOL    HW247498   3.292   5.789   8.642 -0.0155 -1.1074 -1.1837
15774SOL     OW47499   8.054   2.259   7.585  0.2676  0.1176 -0.1347
15774SOL    HW147500   8.140   2.208   7.580 -0.0835 -0.6217  0.8731
15774SOL    HW247501   8.021   2.279   7.493  0.6595 -1.0846 -0.5544
15775SOL     OW47502   7.632   2.839   2.927  0.0707 -0.6233 -0.3620
15775SOL    HW147503   7.547   2.862   2.975 -0.0522 -0.9904 -0.4024
15775SOL    HW247504   7.612   2.777   2.851  0.1879  0.3638 -1.2214
15776SOL     OW47505   7.221   1.873   5.621  0.1921 -0.7837 -0.2356
15776SOL    HW147506   7.236   1.831   5.531 -0.8927 -0.4659 -0.5770
15776SOL    HW247507   7.262   1.964   5.623 -0.1020 -0.6447 -0.5346
15777SOL     OW47508   6.190   1.016   3.848 -0.2424  0.3023 -0.5542
15777SOL    HW147509   6.266   1.081   3.842 -0.7401  0.7962 -1.8868
15777SOL    HW247510   6.121   1.039   3.779 -2.4266  0.8984  1.7038
15778SOL     OW47511   6.133   4.549   7.654 -0.1695  0.0098 -0.2602
15778SOL    HW147512   6.218   4.501   7.633  1.0827  1.3645  1.3699
15778SOL    HW247513   6.155   4.644   7.678 -1.9613 -0.0015  1.6656
15779SOL     OW47514   0.815   0.555   7.013 -0.6289  0.6888 -0.5327
15779SOL    HW147515   0.776   0.647   7.011 -3.3763 -0.3818  0.0450
15779SOL    HW247516   0.789   0.509   7.098 -0.2218 -1.0014 -1.2790
15780SOL     OW47517   5.349   1.849   1.471  0.0980 -0.0723 -0.1728
15780SOL    HW147518   5.348   1.773   1.406  1.1048 -0.0116 -0.2752
15780SOL    HW247519   5.326   1.934   1.422 -2.2339 -0.4276  0.1645
15781SOL     OW47520   7.517   2.757   4.954  0.4097  0.1379 -0.1903
15781SOL    HW147521   7.514   2.759   5.054  0.8247 -1.2033 -0.1279
15781SOL    HW247522   7.442   2.812   4.917  0.6289  1.1811  0.8361
15782SOL     OW47523   3.398   1.206   8.424  0.3367 -0.4201  0.2031
15782SOL    HW147524   3.391   1.108   8.409  2.0626 -0.7168  1.1157
15782SOL    HW247525   3.381   1.227   8.520  2.0315 -0.0945  0.4558
15783SOL     OW47526   2.210   5.504   6.932  0.0174 -0.3186 -0.4075
15783SOL    HW147527   2.210   5.603   6.945  1.9164 -0.2262 -0.8574
15783SOL    HW247528   2.165   5.482   6.845  0.7497  0.2667 -0.9462
15784SOL     OW47529   5.078   0.095   6.806 -0.2229  0.1961  0.0144
15784SOL    HW147530   5.013   0.129   6.875 -0.2625 -0.5960  0.3719
15784SOL    HW247531   5.166   0.141   6.817  0.0928 -0.6713  1.2781
15785SOL     OW47532   6.538   0.683   7.181  0.4556  0.2299  0.9612
15785SOL    HW147533   6.470   0.732   7.127 -0.0028 -1.8549 -0.4447
15785SOL    HW247534   6.492   0.620   7.244  1.0425 -1.1660  0.0290
15786SOL     OW47535   2.193   8.770   0.818  0.5414  0.4642  0.3890
15786SOL    HW147536   2.098   8.743   0.802  0.7818 -0.0918 -0.1374
15786SOL    HW247537   2.229   8.723   0.898 -0.2496  2.2373  1.8537
15787SOL     OW47538   6.010   3.140   4.917  0.2676 -0.0542  0.4194
15787SOL    HW147539   5.981   3.050   4.951 -1.2837  0.5653  0.8643
15787SOL    HW247540   6.031   3.199   4.995  0.6393  0.1724  0.1503
15788SOL     OW47541   4.756   5.097   4.452  0.2569  0.3824  0.1587
15788SOL    HW147542   4.659   5.096   4.473 -0.3130  1.0352 -2.1564
15788SOL    HW247543   4.769   5.086   4.353  2.4545  1.9915  0.1968
15789SOL     OW47544   0.808   7.989   4.297  0.4989 -0.2511  0.1535
15789SOL    HW147545   0.827   7.908   4.242  0.5242 -0.4975  0.5281
15789SOL    HW247546   0.719   7.979   4.341  0.5211 -0.0920  0.2356
15790SOL     OW47547   3.880   3.751   0.350 -0.7019  0.4820  0.0677
15790SOL    HW147548   3.946   3.766   0.424 -0.9130  0.2956  0.2967
15790SOL    HW247549   3.866   3.836   0.300 -1.4372  0.9204  0.9835
15791SOL     OW47550   6.840   7.949   1.922 -0.9144  0.2977  0.1047
15791SOL    HW147551   6.934   7.935   1.951 -1.1378 -0.7232  0.3973
15791SOL    HW247552   6.821   7.891   1.843 -1.6227 -0.4081  0.7712
15792SOL     OW47553   2.760   1.241   6.188 -0.7864  0.5973 -0.0862
15792SOL    HW147554   2.805   1.248   6.098 -0.6550  0.5230 -0.0274
15792SOL    HW247555   2.810   1.175   6.244 -1.1148  0.3325 -0.1044
15793SOL     OW47556   4.242   4.877   7.073  0.5169  0.5298 -0.0503
15793SOL    HW147557   4.152   4.878   7.029  0.0659 -0.2226  0.8283
15793SOL    HW247558   4.269   4.971   7.096  0.3398  0.8395 -1.0553
15794SOL     OW47559   5.731   0.834   6.053  0.3913 -0.4385 -0.2194
15794SOL    HW147560   5.668   0.880   5.991  1.6601  0.1816 -1.0950
15794SOL    HW247561   5.794   0.901   6.093 -0.8035 -0.7213  2.2928
15795SOL     OW47562   6.177   3.432   5.505 -0.1442  0.1965 -0.0726
15795SOL    HW147563   6.229   3.470   5.429 -2.3014 -1.0458 -2.2891
15795SOL    HW247564   6.182   3.332   5.502  0.8220  0.1076  2.2926
15796SOL     OW47565   6.416   3.396   8.309  0.0180  0.1551  0.3834
15796SOL    HW147566   6.414   3.340   8.226 -1.8041 -0.9867  1.1276
15796SOL    HW247567   6.498   3.375   8.362 -0.9081 -2.4121  0.9616
15797SOL     OW47568   5.395   0.375   1.086  0.3650 -0.1267 -0.1498
15797SOL    HW147569   5.438   0.332   1.166 -0.7475  0.0814  0.5789
15797SOL    HW247570   5.466   0.404   1.022  1.3717  0.7870  1.3118
15798SOL     OW47571   8.594   1.770   2.097  0.6165  0.5343 -0.2322
15798SOL    HW147572   8.524   1.834   2.064  2.4292  2.4574 -0.5689
15798SOL    HW247573   8.604   1.780   2.196  1.7915  1.7902 -0.4477
15799SOL     OW47574   5.484   6.747   8.687  0.6328 -0.5259 -0.2680
15799SOL    HW147575   5.541   6.698   8.621  0.6525  0.6624 -1.1672
15799SOL    HW247576   5.524   6.836   8.707 -0.3875 -0.0718 -0.1566
15800SOL     OW47577   0.122   2.659   1.599 -0.4346 -0.0540 -0.5334
15800SOL    HW147578   0.157   2.753   1.589 -0.5096 -0.0417 -0.6695
15800SOL    HW247579   0.172   2.614   1.673 -0.0550 -0.0701 -0.7960
15801SOL     OW47580   2.276   6.685   6.702  0.1981 -0.2030  0.3318
15801SOL    HW147581   2.194   6.629   6.708  0.6039 -0.9743 -0.9806
15801SOL    HW247582   2.257   6.768   6.650  0.3779 -0.6774 -0.5155
15802SOL     OW47583   0.865   7.964   5.785  0.3720  0.2978 -0.0149
15802SOL    HW147584   0.855   7.900   5.708 -0.0719  0.2340  0.0944
15802SOL    HW247585   0.824   7.924   5.867 -0.2420  0.8826 -0.0371
15803SOL     OW47586   3.501   7.911   1.744  0.2957  0.0929 -0.1075
15803SOL    HW147587   3.558   7.851   1.801 -1.8449 -1.5539  0.4423
15803SOL    HW247588   3.408   7.876   1.743 -0.8384  2.9098 -0.6274
15804SOL     OW47589   6.620   2.306   1.483  0.0423  0.2621  0.4091
15804SOL    HW147590   6.638   2.357   1.399  1.1204  1.2055  1.1943
15804SOL    HW247591   6.538   2.342   1.527 -0.1836  0.1599  0.0806
15805SOL     OW47592   8.383   0.678   0.686  0.7459 -0.0199 -0.3353
15805SOL    HW147593   8.418   0.600   0.634 -0.6799 -1.2966  0.5465
15805SOL    HW247594   8.358   0.649   0.778 -0.7842  1.2359 -0.3023
15806SOL     OW47595   0.028   6.485   6.401  0.4481  0.1982 -0.1471
15806SOL    HW147596   0.071   6.404   6.361  0.1668  0.7848 -1.7207
15806SOL    HW247597   0.077   6.567   6.369 -0.7016  0.7662 -0.5062
15807SOL     OW47598   7.461   6.173   6.507 -0.3910 -1.0245 -0.0594
15807SOL    HW147599   7.452   6.265   6.468  0.4056 -0.2304  1.5184
15807SOL    HW247600   7.555   6.159   6.537 -0.6497 -2.1401  0.2625
15808SOL     OW47601   0.817   6.732   6.879 -0.2943  0.5364 -0.6023
15808SOL    HW147602   0.853   6.677   6.803  3.1882 -1.2216  2.0373
15808SOL    HW247603   0.766   6.674   6.942  1.1524  0.7845  0.8725
15809SOL     OW47604   6.315   6.694   8.647  0.4366 -0.0734 -0.0342
15809SOL    HW147605   6.386   6.763   8.657  0.1413  0.1717  0.4220
15809SOL    HW247606   6.271   6.704   8.557 -0.4502  1.1576  0.5111
15810SOL     OW47607   6.719   7.593   6.341 -0.4175  0.3830  0.0378
15810SOL    HW147608   6.748   7.515   6.397 -0.0633  0.1040 -0.5221
15810SOL    HW247609   6.728   7.677   6.394  1.4020  0.3030 -0.0993
15811SOL     OW47610   5.884   5.370   1.289 -0.3020 -0.5599 -0.5087
15811SOL    HW147611   5.960   5.309   1.268 -0.8121 -1.5961  0.5467
15811SOL    HW247612   5.872   5.435   1.214  0.9532 -1.0499 -1.1592
15812SOL     OW47613   2.999   8.618   0.658 -0.3879 -0.5856  0.4121
15812SOL    HW147614   2.912   8.618   0.708 -0.2257 -0.1316  0.7050
15812SOL    HW247615   2.997   8.692   0.590  0.3174  0.3788  1.4095
15813SOL     OW47616   1.052   5.316   6.080 -0.4089  0.4887 -0.1979
15813SOL    HW147617   1.139   5.267   6.078 -1.2445 -1.0584  0.1081
15813SOL    HW247618   1.066   5.406   6.121  0.8089 -0.2300  1.0437
15814SOL     OW47619   3.179   6.621   1.715 -0.5645 -0.1108  0.3115
15814SOL    HW147620   3.114   6.694   1.697  1.7504  1.6397 -1.4719
15814SOL    HW247621   3.258   6.657   1.766  0.8393 -1.1981 -0.9714
15815SOL     OW47622   3.018   2.343   5.238 -0.1062 -0.2007  0.1763
15815SOL    HW147623   3.036   2.305   5.147  1.7636 -0.5005  0.6427
15815SOL    HW247624   3.069   2.291   5.307  0.0355  1.2352  1.1855
15816SOL     OW47625   0.412   5.592   1.305  0.1138  0.2603 -0.4461
15816SOL    HW147626   0.484   5.530   1.336 -1.3745 -1.3976 -0.1465
15816SOL    HW247627   0.382   5.650   1.382  0.5146  0.3302 -0.3433
15817SOL     OW47628   8.097   6.788   7.851  0.3022  0.2931 -0.3232
15817SOL    HW147629   8.092   6.813   7.754 -0.8861  1.2558 -0.0420
15817SOL    HW247630   8.169   6.841   7.895  0.0318  0.7560 -0.4316
15818SOL     OW47631   4.592   0.664   1.997 -0.8234  0.2385  0.1122
15818SOL    HW147632   4.606   0.578   1.948 -1.3900  0.5785 -0.6676
15818SOL    HW247633   4.499   0.698   1.980 -0.9405  0.5096  1.2110
15819SOL     OW47634   8.096   6.510   3.326 -0.6347  0.1978 -0.2069
15819SOL    HW147635   8.110   6.457   3.409 -1.7526 -1.4728 -1.0393
15819SOL    HW247636   8.168   6.489   3.260 -0.3624  0.6979 -0.0755
15820SOL     OW47637   0.182   2.871   0.808  0.2190  0.0671  0.0819
15820SOL    HW147638   0.104   2.882   0.746  0.5252  0.3845 -0.2564
15820SOL    HW247639   0.195   2.955   0.860  0.2668 -0.0265  0.2224
15821SOL     OW47640   1.179   1.784   2.729  0.1391  0.0619 -0.3789
15821SOL    HW147641   1.268   1.829   2.727 -0.0133  0.3420 -1.4428
15821SOL    HW247642   1.164   1.745   2.819  0.9460  0.7976  0.0926
15822SOL     OW47643   1.370   0.471   4.502  0.0009  0.5198 -0.2555
15822SOL    HW147644   1.397   0.453   4.407 -0.6651 -2.0054 -0.0310
15822SOL    HW247645   1.368   0.385   4.553 -0.5796  1.7035  1.8226
15823SOL     OW47646   0.553   6.167   5.899  0.0839  0.9282 -0.0124
15823SOL    HW147647   0.574   6.237   5.831 -1.7554 -0.3172 -1.9843
15823SOL    HW247648   0.587   6.078   5.868  1.5828  0.6995  2.0241
15824SOL     OW47649   3.472   6.998   7.649  0.0108  0.2934 -0.0693
15824SOL    HW147650   3.473   7.018   7.747  1.0771  0.4053 -0.0938
15824SOL    HW247651   3.517   6.910   7.632 -0.3851  0.1574 -0.4396
15825SOL     OW47652   1.262   1.008   2.820  0.2991 -0.1545 -0.1577
15825SOL    HW147653   1.294   1.058   2.740  1.3965 -0.2113  0.2285
15825SOL    HW247654   1.226   0.919   2.792  1.4247 -0.5050 -0.5062
15826SOL     OW47655   4.384   2.877   6.461  0.1457 -0.3594  0.0322
15826SOL    HW147656   4.290   2.909   6.450 -0.3980 -2.3691 -2.2315
15826SOL    HW247657   4.387   2.804   6.529  0.5327  1.1930  1.7425
15827SOL     OW47658   2.238   6.277   2.277  0.3595  0.1762 -0.5210
15827SOL    HW147659   2.284   6.336   2.344  0.2236  1.6412 -1.6539
15827SOL    HW247660   2.218   6.188   2.318  2.4423  0.1731  0.6149
15828SOL     OW47661   5.994   8.425   2.183 -0.0015  0.3563 -0.2348
15828SOL    HW147662   5.961   8.517   2.205 -0.2070  0.4693 -0.9815
15828SOL    HW247663   5.936   8.357   2.227  0.5025  0.5858  0.8013
15829SOL     OW47664   2.165   5.816   6.277  0.3436 -0.1394  0.0956
15829SOL    HW147665   2.243   5.783   6.330 -1.8772 -1.0597  3.0098
15829SOL    HW247666   2.106   5.740   6.252 -0.9308  0.7864  0.1782
15830SOL     OW47667   0.590   0.249   3.362  0.2897  0.3665 -0.3872
15830SOL    HW147668   0.610   0.156   3.331 -0.1216 -0.0763  0.6272
15830SOL    HW247669   0.530   0.294   3.296  1.2117  0.2412 -1.3416
15831SOL     OW47670   1.062   0.108   4.216  0.1426  0.3346 -0.0286
15831SOL    HW147671   1.061   0.084   4.119  1.2842  1.6814 -0.4225
15831SOL    HW247672   0.984   0.167   4.237 -0.7017 -0.8102  0.1426
15832SOL     OW47673   1.096   8.661   4.817 -0.3574 -0.6957  0.5641
15832SOL    HW147674   1.057   8.632   4.729 -0.4350 -0.2464  0.4478
15832SOL    HW247675   1.027   8.651   4.889 -0.7469  0.2315  0.3345
15833SOL     OW47676   5.612   5.518   1.447  0.0777 -0.1127 -0.0074
15833SOL    HW147677   5.641   5.448   1.382  1.7488 -2.1216  2.6431
15833SOL    HW247678   5.673   5.597   1.441 -0.8167  0.4818 -1.9251
15834SOL     OW47679   3.136   7.881   7.494  0.0579 -0.2253 -0.3541
15834SOL    HW147680   3.171   7.965   7.534  1.4391 -0.6955 -0.5069
15834SOL    HW247681   3.171   7.802   7.546 -0.6755 -0.7315 -0.6065
15835SOL     OW47682   0.760   8.289   2.419  0.1462  0.0332 -0.0111
15835SOL    HW147683   0.765   8.274   2.517  1.4663 -2.1219 -0.3359
15835SOL    HW247684   0.853   8.305   2.383 -0.0588 -1.1467 -1.1350
15836SOL     OW47685   2.613   8.540   5.301  0.2067  0.1971 -0.3713
15836SOL    HW147686   2.606   8.535   5.400 -1.5252  1.6052 -0.3781
15836SOL    HW247687   2.522   8.545   5.260  0.8884  0.2806 -1.9904
15837SOL     OW47688   0.234   3.670   8.536 -0.2145 -0.2107  0.4049
15837SOL    HW147689   0.292   3.750   8.522 -0.9766  0.3955  0.6754
15837SOL    HW247690   0.189   3.645   8.451  0.8499 -1.0221  0.0561
15838SOL     OW47691   1.517   7.012   4.312  0.5140 -0.3217  0.0329
15838SOL    HW147692   1.545   7.077   4.382  0.1889 -0.8274  0.6386
15838SOL    HW247693   1.432   7.042   4.269  1.8707  1.1993 -1.7845
15839SOL     OW47694   0.912   0.502   3.055 -0.0819  0.4822  0.2361
15839SOL    HW147695   1.001   0.487   3.099 -0.0844  1.3255  0.5654
15839SOL    HW247696   0.905   0.598   3.028 -0.3571  0.1205 -1.0172
15840SOL     OW47697   2.109   7.200   8.336  0.3625 -0.6260  0.3075
15840SOL    HW147698   2.048   7.131   8.374  1.8058 -1.3013  1.4911
15840SOL    HW247699   2.178   7.225   8.404  1.9202 -0.4894 -1.2564
15841SOL     OW47700   7.672   0.879   0.800 -0.2322  0.6593  0.0876
15841SOL    HW147701   7.728   0.902   0.880  0.5502 -0.2715 -0.1632
15841SOL    HW247702   7.601   0.814   0.827 -1.3284  1.9704  0.4406
15842SOL     OW47703   2.606   2.758   7.420 -0.0241 -0.0928  0.1853
15842SOL    HW147704   2.554   2.750   7.334  0.9264 -0.7492 -0.3579
15842SOL    HW247705   2.660   2.842   7.418 -0.1125 -0.0359  0.1962
15843SOL     OW47706   7.029   6.552   6.639  0.6239 -0.2759  0.2649
15843SOL    HW147707   7.091   6.515   6.570  1.0184 -0.2905  0.6182
15843SOL    HW247708   7.074   6.627   6.687 -0.6926  1.6590 -1.4137
15844SOL     OW47709   2.381   4.228   2.090 -0.0527 -0.6079 -0.4943
15844SOL    HW147710   2.471   4.190   2.071  0.4169  0.0490  0.3415
15844SOL    HW247711   2.310   4.165   2.057  0.7057 -1.6759 -0.1344
15845SOL     OW47712   3.992   2.268   3.182  0.2544 -0.6612  0.1082
15845SOL    HW147713   4.058   2.328   3.137 -1.8557  0.8042 -1.2340
15845SOL    HW247714   3.983   2.183   3.130  0.1502 -0.3151 -0.4476
15846SOL     OW47715   4.992   7.199   0.510  0.0741  0.2525  0.2394
15846SOL    HW147716   5.053   7.225   0.435  0.2574  0.8567  0.5910
15846SOL    HW247717   4.987   7.099   0.515  1.0257  0.1892  0.1959
15847SOL     OW47718   6.498   5.962   6.676  0.2441  0.0528  0.0645
15847SOL    HW147719   6.556   5.988   6.753 -0.9836  0.2213  0.9445
15847SOL    HW247720   6.516   5.866   6.652 -0.7661 -0.6223  1.8570
15848SOL     OW47721   7.393   6.819   1.641  0.2695  0.5609 -0.5689
15848SOL    HW147722   7.388   6.785   1.736  0.5513 -0.0312 -0.7627
15848SOL    HW247723   7.361   6.914   1.639 -2.2686 -0.1965 -0.2849
15849SOL     OW47724   6.962   2.535   0.687  0.2466  0.1935 -0.1113
15849SOL    HW147725   6.887   2.596   0.713  0.0858  0.0990 -0.3475
15849SOL    HW247726   7.049   2.584   0.694 -0.0052  0.9224 -1.6982
15850SOL     OW47727   3.764   3.279   1.690  0.0235  0.1451  0.0194
15850SOL    HW147728   3.852   3.256   1.649  0.0094  2.8120 -1.7018
15850SOL    HW247729   3.770   3.369   1.734 -2.0737  0.8276 -0.9909
15851SOL     OW47730   6.913   0.961   2.215  0.0242 -0.0373 -0.3365
15851SOL    HW147731   6.839   0.899   2.243  0.8354 -1.2806 -0.8542
15851SOL    HW247732   6.990   0.952   2.278 -0.1104  0.9889 -0.0055
15852SOL     OW47733   5.711   2.243   0.821 -0.1395  0.2611  0.1990
15852SOL    HW147734   5.640   2.311   0.841 -1.1648 -0.8918  0.5994
15852SOL    HW247735   5.689   2.157   0.867 -0.5297 -1.3207 -2.7212
15853SOL     OW47736   2.731   4.659   2.080  0.0635  0.5098  0.7743
15853SOL    HW147737   2.649   4.606   2.102  0.0108  0.4957  0.5523
15853SOL    HW247738   2.738   4.668   1.980  0.8827 -0.3421  0.7473
15854SOL     OW47739   6.135   6.961   3.939 -0.1612  0.0729 -0.0755
15854SOL    HW147740   6.073   6.883   3.949 -1.1328  0.5484 -1.8792
15854SOL    HW247741   6.174   6.961   3.846  1.2511  0.7340  0.4820
15855SOL     OW47742   8.347   1.413   4.212  0.4834 -0.1263 -0.2416
15855SOL    HW147743   8.350   1.436   4.115 -0.3355  0.5143 -0.1280
15855SOL    HW247744   8.421   1.459   4.260  0.3033  0.3431 -0.4117
15856SOL     OW47745   5.925   3.493   0.224  1.0654 -0.1181  0.1389
15856SOL    HW147746   5.899   3.534   0.136  1.1608  2.0275  1.0430
15856SOL    HW247747   5.869   3.412   0.241 -2.3753  2.0450  0.1948
15857SOL     OW47748   6.182   2.258   8.604  0.5879 -0.0646 -0.0449
15857SOL    HW147749   6.169   2.233   8.508  0.1985 -1.5440  0.3684
15857SOL    HW247750   6.280   2.252   8.627  0.4657 -1.7957  0.1628
15858SOL     OW47751   5.080   5.878   4.549  0.2494 -0.5515 -0.8166
15858SOL    HW147752   5.166   5.826   4.547  1.2327  1.0387 -1.4635
15858SOL    HW247753   5.010   5.827   4.498  0.5466 -2.2402  0.3602
15859SOL     OW47754   1.218   2.442   8.682  0.4068  0.4848 -0.2261
15859SOL    HW147755   1.316   2.423   8.693  0.4415  0.7561 -0.0651
15859SOL    HW247756   1.204   2.540   8.671 -0.0635  0.7987  2.3693
15860SOL     OW47757   0.586   2.364   3.243 -0.2655  0.5443  0.6004
15860SOL    HW147758   0.511   2.345   3.307 -1.0866 -0.9048 -0.7076
15860SOL    HW247759   0.650   2.288   3.244  0.4094  1.1087  0.6362
15861SOL     OW47760   8.661   6.695   0.657  0.1404  0.0202  0.0670
15861SOL    HW147761   8.734   6.751   0.617 -0.1611 -0.2226 -0.8418
15861SOL    HW247762   8.596   6.668   0.585  1.2985 -3.1429  0.0451
15862SOL     OW47763   2.024   7.960   0.635  0.5493 -0.3248 -0.0813
15862SOL    HW147764   1.940   8.013   0.645 -0.7286 -1.8637 -1.9403
15862SOL    HW247765   2.010   7.867   0.669  1.5384 -0.5736 -0.3020
15863SOL     OW47766   4.323   7.506   6.069 -0.2662 -0.1625  0.0641
15863SOL    HW147767   4.301   7.595   6.108  1.6878  0.1157  0.6443
15863SOL    HW247768   4.304   7.434   6.136 -1.6079 -0.1856 -0.3157
15864SOL     OW47769   4.652   4.566   6.346  0.2305 -0.5839 -0.2234
15864SOL    HW147770   4.669   4.510   6.265 -0.5921  0.5298 -1.2020
15864SOL    HW247771   4.677   4.661   6.328  0.2516 -0.3533  0.9096
15865SOL     OW47772   8.811   1.478   5.899 -0.3725 -0.1173  0.1883
15865SOL    HW147773   8.755   1.436   5.828 -1.2571  1.3034  0.0104
15865SOL    HW247774   8.760   1.479   5.985  0.2442 -0.7698  0.5741
15866SOL     OW47775   2.687   0.372   0.826  0.5328 -0.7450  0.6318
15866SOL    HW147776   2.761   0.308   0.848  0.8529 -0.1903  1.1882
15866SOL    HW247777   2.612   0.360   0.891  1.1069  0.2788  1.5149
15867SOL     OW47778   5.497   7.666   4.114 -0.4418 -0.0656 -0.0311
15867SOL    HW147779   5.567   7.721   4.067 -0.0423 -0.3922  0.1784
15867SOL    HW247780   5.541   7.594   4.167 -0.9832 -1.1043 -0.9405
15868SOL     OW47781   5.124   6.314   7.450  0.3741  0.3532 -0.4280
15868SOL    HW147782   5.093   6.258   7.373  1.3950 -4.2130  2.0856
15868SOL    HW247783   5.052   6.317   7.520  1.3927 -0.4081  0.6859
15869SOL     OW47784   2.731   8.675   0.542 -0.1709 -0.4573  0.1180
15869SOL    HW147785   2.767   8.769   0.535  0.3679 -0.7240 -0.9709
15869SOL    HW247786   2.688   8.663   0.631 -1.8381  1.3899 -0.3536
15870SOL     OW47787   1.464   2.035   2.023 -0.5952  0.1945 -0.0828
15870SOL    HW147788   1.495   1.967   1.956 -3.7078 -0.2462 -1.2304
15870SOL    HW247789   1.482   2.001   2.116 -0.0820 -1.1509 -0.6542
15871SOL     OW47790   7.451   8.164   5.858 -0.3266 -0.1115  0.1194
15871SOL    HW147791   7.498   8.250   5.878  1.0488 -0.6975 -0.4728
15871SOL    HW247792   7.382   8.179   5.787 -0.3930  0.5865  0.3305
15872SOL     OW47793   0.536   0.647   3.048 -0.2137  0.5564  0.6664
15872SOL    HW147794   0.451   0.681   3.007 -1.8351 -1.1046  2.4377
15872SOL    HW247795   0.592   0.603   2.977 -1.4402  0.5358 -0.3249
15873SOL     OW47796   1.673   8.602   1.962 -0.3061  0.1265 -0.0217
15873SOL    HW147797   1.718   8.632   1.878  0.7510  0.6442  0.7183
15873SOL    HW247798   1.619   8.677   2.000  1.0008  0.6206  0.9325
15874SOL     OW47799   5.089   8.085   4.680  0.6018 -0.4038 -0.1150
15874SOL    HW147800   5.172   8.135   4.655  1.5217 -1.5153  0.5971
15874SOL    HW247801   5.012   8.149   4.687  1.2732  0.5656 -1.3084
15875SOL     OW47802   3.734   8.323   0.729 -0.3018 -0.5404 -0.2079
15875SOL    HW147803   3.813   8.370   0.690 -0.9814 -0.5296 -1.6143
15875SOL    HW247804   3.757   8.291   0.821  1.1373 -0.0320 -0.3636
15876SOL     OW47805   4.379   0.646   1.716  0.7772  0.6480  0.1604
15876SOL    HW147806   4.459   0.707   1.714 -0.1262  1.8510 -0.1687
15876SOL    HW247807   4.407   0.554   1.691  1.8495  1.3088 -1.1813
15877SOL     OW47808   7.748   7.243   2.160 -0.5658  0.2906 -0.2426
15877SOL    HW147809   7.657   7.257   2.198 -0.1679  0.6280  0.6212
15877SOL    HW247810   7.807   7.202   2.230  0.8587  3.1548  0.4040
15878SOL     OW47811   5.567   1.382   0.813 -0.0374  0.1356 -0.3065
15878SOL    HW147812   5.476   1.386   0.773 -0.1200  0.4004 -0.0977
15878SOL    HW247813   5.634   1.415   0.746 -0.3581  2.1721  0.2884
15879SOL     OW47814   8.349   0.286   2.732 -0.0394 -0.0813 -0.2552
15879SOL    HW147815   8.410   0.261   2.807 -0.0174  1.1419  0.1526
15879SOL    HW247816   8.283   0.212   2.717  0.8588 -0.9606 -0.0042
15880SOL     OW47817   3.014   6.944   2.451  0.0269 -0.3272  0.0977
15880SOL    HW147818   3.044   6.904   2.365  0.2380  0.3693 -0.1535
15880SOL    HW247819   3.051   7.036   2.461 -1.3668  0.2589  0.1530
15881SOL     OW47820   1.615   5.202   4.176  0.0108 -0.3241  0.1493
15881SOL    HW147821   1.708   5.229   4.149 -0.0088 -0.3991  0.0040
15881SOL    HW247822   1.595   5.237   4.267 -0.6603  1.7410 -0.7167
15882SOL     OW47823   0.304   7.049   3.715 -0.0282 -0.8656  0.5176
15882SOL    HW147824   0.365   7.060   3.793 -0.9605 -1.7765  1.4085
15882SOL    HW247825   0.220   7.101   3.730 -0.2917 -1.1925  0.2156
15883SOL     OW47826   1.052   5.893   6.008  0.3833  0.3192 -0.4636
15883SOL    HW147827   1.090   5.832   5.938  0.0324 -0.1655 -0.2317
15883SOL    HW247828   0.961   5.862   6.034  0.4685  0.5587  0.1403
15884SOL     OW47829   3.443   7.824   7.666 -0.3518 -0.6652 -0.0611
15884SOL    HW147830   3.540   7.814   7.688 -0.0082  1.9606 -0.0229
15884SOL    HW247831   3.388   7.794   7.744  0.4316 -1.4502  0.2111
15885SOL     OW47832   1.562   6.366   4.613 -0.5402  0.7929  0.2121
15885SOL    HW147833   1.631   6.393   4.547  0.5889  0.3855  1.1879
15885SOL    HW247834   1.606   6.329   4.695 -1.9334 -0.5042  0.4296
15886SOL     OW47835   7.207   4.681   3.437 -0.4247 -0.3225 -0.1149
15886SOL    HW147836   7.247   4.602   3.392  1.6233  0.6304 -0.0807
15886SOL    HW247837   7.261   4.763   3.416 -1.3904  0.7459  1.3310
15887SOL     OW47838   0.261   6.612   8.787 -0.1097 -0.2412 -0.0134
15887SOL    HW147839   0.221   6.539   8.733 -0.7526  0.3985 -0.4034
15887SOL    HW247840   0.316   6.671   8.728 -0.0807 -0.0583  0.1956
15888SOL     OW47841   6.855   6.489   4.261 -0.2432 -0.5050 -0.6778
15888SOL    HW147842   6.850   6.524   4.355  1.5320  1.4028 -1.2231
15888SOL    HW247843   6.927   6.419   4.256 -0.2956 -0.5621 -0.6330
15889SOL     OW47844   2.951   8.160   1.490 -0.2287  0.3680 -0.3006
15889SOL    HW147845   2.999   8.075   1.513  1.1350  1.4074  0.8600
15889SOL    HW247846   2.883   8.180   1.560 -0.5147  0.2470 -0.5463
15890SOL     OW47847   7.758   4.567   3.089  0.6411  0.3591  0.0862
15890SOL    HW147848   7.725   4.537   3.000 -0.4736 -0.4167  0.7281
15890SOL    HW247849   7.745   4.666   3.098  0.6360  0.4186 -0.5588
15891SOL     OW47850   5.035   2.443   0.330  0.3943 -0.5161  0.3412
15891SOL    HW147851   5.008   2.471   0.238 -0.9848 -2.4448  0.0806
15891SOL    HW247852   5.078   2.353   0.326  0.8280 -0.3813  1.5352
15892SOL     OW47853   2.541   0.371   7.230 -0.2275 -0.6330 -0.2157
15892SOL    HW147854   2.470   0.415   7.284  0.9305 -0.0468  0.8643
15892SOL    HW247855   2.541   0.273   7.249 -2.2482 -1.0632 -1.9923
15893SOL     OW47856   0.542   4.486   1.428 -0.2599 -0.1610 -0.1773
15893SOL    HW147857   0.560   4.416   1.360 -0.6275 -2.4034  1.8954
15893SOL    HW247858   0.473   4.453   1.493  0.7617  1.4259  1.8673
15894SOL     OW47859   5.032   0.310   3.653  0.1858 -0.3867 -0.0807
15894SOL    HW147860   5.037   0.324   3.752  1.4691 -0.3502 -0.1361
15894SOL    HW247861   5.121   0.332   3.611  0.0395 -1.5873 -1.0803
15895SOL     OW47862   3.469   3.176   0.237 -0.6068 -0.3770 -0.0419
15895SOL    HW147863   3.399   3.201   0.171  0.4887 -0.3872 -1.2437
15895SOL    HW247864   3.542   3.243   0.236  0.1455 -1.1716  0.0641
15896SOL     OW47865   1.753   1.093   0.801  0.0476 -0.3491 -0.0041
15896SOL    HW147866   1.720   1.037   0.725  0.6219  0.4035 -0.8386
15896SOL    HW247867   1.838   1.054   0.836 -0.2947 -0.7797  0.3562
15897SOL     OW47868   3.852   0.231   0.508 -0.1240  0.8303  0.5842
15897SOL    HW147869   3.810   0.232   0.417 -0.9322 -0.4642  0.9298
15897SOL    HW247870   3.782   0.215   0.577  0.6022  1.0361  1.3788
15898SOL     OW47871   4.329   0.437   6.527 -0.2874 -0.0982 -0.3088
15898SOL    HW147872   4.414   0.387   6.541  0.3417  0.5245 -1.7135
15898SOL    HW247873   4.319   0.460   6.430 -1.5369  0.7492 -0.0048
15899SOL     OW47874   7.148   7.536   1.774 -0.6129  0.0293 -0.1722
15899SOL    HW147875   7.164   7.569   1.681  0.6246 -0.2227 -0.0678
15899SOL    HW247876   7.056   7.499   1.781 -1.1263  1.1263 -0.9772
15900SOL     OW47877   2.915   3.628   2.890 -0.3024  0.2350 -0.7802
15900SOL    HW147878   2.977   3.702   2.862 -0.9605  1.0041 -0.2187
15900SOL    HW247879   2.966   3.562   2.945 -0.4707  2.0898  1.7415
15901SOL     OW47880   1.419   4.805   6.832 -0.2241 -0.2395  0.1170
15901SOL    HW147881   1.487   4.757   6.777 -0.3073 -0.1918 -0.0291
15901SOL    HW247882   1.391   4.889   6.785  0.0541  0.0446  0.4574
15902SOL     OW47883   4.188   1.871   0.935  0.1167  0.3552 -0.4394
15902SOL    HW147884   4.149   1.941   0.876 -0.2187  0.8236  0.3304
15902SOL    HW247885   4.230   1.914   1.015 -1.0559 -0.3673  0.6016
15903SOL     OW47886   8.783   6.659   1.207  0.1951  0.3686  0.1033
15903SOL    HW147887   8.831   6.621   1.129 -0.8274 -0.1625 -0.2904
15903SOL    HW247888   8.691   6.620   1.212  0.2770  0.2908  1.6401
15904SOL     OW47889   7.876   7.778   4.958  0.2556 -0.9968 -0.1473
15904SOL    HW147890   7.828   7.819   4.880 -1.4451  0.6940  1.6868
15904SOL    HW247891   7.812   7.768   5.034  2.3903 -0.4276  1.8027
15905SOL     OW47892   6.011   7.781   0.223  0.0491  0.2630 -0.0573
15905SOL    HW147893   6.096   7.747   0.182  0.8295 -0.4840  2.0197
15905SOL    HW247894   5.967   7.707   0.274 -0.2962  1.3521  1.2862
15906SOL     OW47895   7.411   0.543   6.726 -0.3051 -0.4538  0.2409
15906SOL    HW147896   7.458   0.596   6.656 -1.1914  1.6888  1.1819
15906SOL    HW247897   7.319   0.581   6.741 -1.2378 -2.6643  0.5489
15907SOL     OW47898   4.746   1.088   6.183 -0.0250  0.2946  0.0959
15907SOL    HW147899   4.797   1.152   6.125 -0.4136  0.7076  0.2039
15907SOL    HW247900   4.762   1.110   6.279 -0.4440  0.4672  0.1299
15908SOL     OW47901   1.803   1.869   0.693 -0.3247 -0.1600 -0.5692
15908SOL    HW147902   1.721   1.911   0.654 -0.2341  0.0515 -0.5369
15908SOL    HW247903   1.854   1.938   0.745 -0.8660 -0.6123  0.6004
15909SOL     OW47904   4.144   6.363   2.674 -0.2060 -0.2154  0.1160
15909SOL    HW147905   4.142   6.456   2.638  0.8715 -0.0925  0.3339
15909SOL    HW247906   4.056   6.341   2.716  0.6577  2.1377  3.5877
15910SOL     OW47907   6.145   2.804   4.244 -0.2820 -0.2000  0.3643
15910SOL    HW147908   6.242   2.821   4.222 -0.2993 -0.3212  0.1924
15910SOL    HW247909   6.102   2.889   4.274 -0.2306 -0.0559  0.0262
15911SOL     OW47910   4.657   2.903   8.752 -0.0333  0.0710 -0.0560
15911SOL    HW147911   4.617   2.891   8.843 -1.6357 -2.0752 -0.9414
15911SOL    HW247912   4.622   2.987   8.711 -1.5954 -0.3851  0.2622
15912SOL     OW47913   8.041   1.960   1.977  0.1297  0.2054 -0.0691
15912SOL    HW147914   7.957   1.934   1.929 -0.8942  0.4325  1.5174
15912SOL    HW247915   8.119   1.912   1.937 -0.9677 -1.1732 -0.6098
15913SOL     OW47916   0.235   8.486   3.135 -0.6247  0.0423  0.0852
15913SOL    HW147917   0.171   8.410   3.143 -1.8114  0.8294 -1.3907
15913SOL    HW247918   0.193   8.570   3.169 -0.2568  0.5025 -0.5493
15914SOL     OW47919   1.271   8.480   2.624 -0.0196 -0.0706  0.1417
15914SOL    HW147920   1.192   8.538   2.642 -0.6425 -1.2295  1.3414
15914SOL    HW247921   1.245   8.384   2.635  1.6288 -0.4672  0.9240
15915SOL     OW47922   6.682   4.298   1.440  0.4035 -0.1963 -0.2186
15915SOL    HW147923   6.707   4.204   1.462 -2.5068 -1.3562 -1.3999
15915SOL    HW247924   6.700   4.315   1.343  2.0413  0.9404  0.2370
15916SOL     OW47925   4.509   8.309   4.672  0.3272  0.0469 -0.1006
15916SOL    HW147926   4.601   8.331   4.640  1.0054  1.8167  2.7427
15916SOL    HW247927   4.491   8.355   4.758 -2.8398 -1.2037  0.0657
15917SOL     OW47928   1.312   2.018   5.580  0.1670  0.0500  0.7455
15917SOL    HW147929   1.360   2.105   5.567 -0.0999  0.1550  0.4305
15917SOL    HW247930   1.370   1.943   5.550 -0.7482  0.3384 -2.1273
15918SOL     OW47931   0.023   3.238   4.980  0.0487 -0.2954 -0.3884
15918SOL    HW147932  -0.037   3.194   4.913 -0.1296  1.9336 -1.8086
15918SOL    HW247933  -0.032   3.296   5.040  0.3928 -1.1195  0.7418
15919SOL     OW47934   3.188   3.500   6.777 -0.0701  0.2037 -0.0205
15919SOL    HW147935   3.091   3.502   6.801 -0.6399 -0.8582 -2.0130
15919SOL    HW247936   3.236   3.438   6.839 -0.8295  0.0296  0.4107
15920SOL     OW47937   2.200   6.256   4.811  0.5985 -0.0603 -0.3125
15920SOL    HW147938   2.112   6.225   4.847  0.0664  1.8550  0.1505
15920SOL    HW247939   2.274   6.203   4.854 -0.1020  1.1046  2.5285
15921SOL     OW47940   0.603   5.320   0.025 -0.2802 -0.3492 -0.6031
15921SOL    HW147941   0.606   5.291   0.120 -0.3511 -0.4366 -0.6277
15921SOL    HW247942   0.518   5.289  -0.018 -1.3680  1.7028 -0.0539
15922SOL     OW47943   5.961   6.863   6.656 -0.2926 -0.0086  0.3516
15922SOL    HW147944   6.025   6.925   6.700 -0.4050 -0.4976  1.2240
15922SOL    HW247945   5.918   6.909   6.578  1.3527  0.2114 -0.4543
15923SOL     OW47946   2.429   8.342   6.976  0.2239  0.8387 -0.4008
15923SOL    HW147947   2.478   8.379   6.897 -0.0126  0.0802 -0.9088
15923SOL    HW247948   2.472   8.257   7.005  1.5243  2.0864  1.5361
15924SOL     OW47949   4.854   7.752   3.570 -0.8283  0.3044  0.3050
15924SOL    HW147950   4.823   7.770   3.476  0.4310  1.2680  0.0407
15924SOL    HW247951   4.818   7.822   3.631 -0.3471  0.6246  0.2352
15925SOL     OW47952   5.319   7.126   2.408 -0.9646  0.7716 -0.3226
15925SOL    HW147953   5.232   7.078   2.411 -1.0544  0.9533  0.1039
15925SOL    HW247954   5.319   7.199   2.476  0.2175 -0.4275  1.0159
15926SOL     OW47955   0.002   4.956   8.649 -0.0986  0.7929 -0.3314
15926SOL    HW147956  -0.011   4.867   8.605 -0.2710  0.8869 -0.4727
15926SOL    HW247957  -0.066   4.969   8.721 -1.1877  1.5215 -1.4465
15927SOL     OW47958   3.107   5.040   5.315 -0.1401  0.7815  0.6049
15927SOL    HW147959   3.095   4.943   5.333  0.3718  0.4237 -0.8625
15927SOL    HW247960   3.018   5.086   5.321 -1.0517 -0.4074 -2.0749
15928SOL     OW47961   7.577   5.710   5.726  0.2188  0.4050  0.2574
15928SOL    HW147962   7.593   5.808   5.720  0.6410  0.4651  1.9109
15928SOL    HW247963   7.550   5.675   5.637  1.5762  1.7490 -0.7219
15929SOL     OW47964   3.180   7.188   6.820 -0.2200 -0.6412 -0.3224
15929SOL    HW147965   3.150   7.181   6.724  0.2813 -0.6401 -0.4794
15929SOL    HW247966   3.206   7.282   6.840 -0.7148 -0.5550 -0.0626
15930SOL     OW47967   2.856   8.781   2.047 -0.9899  0.0708 -0.1202
15930SOL    HW147968   2.836   8.749   2.139 -1.0501  0.2253 -0.0788
15930SOL    HW247969   2.882   8.877   2.050 -0.8885  0.0481 -0.2518
15931SOL     OW47970   2.236   4.567   4.988  0.1837 -0.1931  0.0278
15931SOL    HW147971   2.226   4.552   4.890  0.2840  1.4013 -0.2370
15931SOL    HW247972   2.330   4.548   5.015 -0.0035 -1.2988 -0.0398
15932SOL     OW47973   4.003   3.708   8.803  0.0823 -0.3804 -0.2257
15932SOL    HW147974   3.930   3.701   8.735 -0.3361  0.9795  0.0511
15932SOL    HW247975   3.982   3.648   8.881  1.6274 -3.6834 -2.1206
15933SOL     OW47976   3.961   7.585   1.586  0.0132  0.6924  0.0745
15933SOL    HW147977   4.056   7.559   1.605  0.0428  0.4992 -0.3157
15933SOL    HW247978   3.933   7.657   1.648  0.2655  0.4251  0.5058
15934SOL     OW47979   1.832   5.985   3.598 -0.0351 -0.4578 -0.8899
15934SOL    HW147980   1.744   5.937   3.599 -0.6831  0.4789 -3.7417
15934SOL    HW247981   1.828   6.060   3.533  2.6247  0.2026 -0.4061
15935SOL     OW47982   7.067   5.338   8.238  0.0268 -0.0922  0.2823
15935SOL    HW147983   7.036   5.310   8.329 -0.1162 -0.3797  0.1453
15935SOL    HW247984   7.166   5.333   8.233  0.0905  0.7196  0.6865
15936SOL     OW47985   2.678   0.574   3.816 -0.0277 -0.3632 -0.3972
15936SOL    HW147986   2.619   0.616   3.886 -0.9475 -1.0642 -0.7310
15936SOL    HW247987   2.758   0.533   3.860  2.2816  3.7331 -0.2051
15937SOL     OW47988   0.548   8.451   2.376  0.6965  0.6180 -0.4092
15937SOL    HW147989   0.479   8.401   2.324 -1.5659 -1.0153  3.6612
15937SOL    HW247990   0.638   8.410   2.361 -0.1501 -0.8816 -1.6175
15938SOL     OW47991   5.949   5.838   4.331  0.2775 -0.1197  0.2320
15938SOL    HW147992   5.962   5.937   4.324  0.9219 -0.2463 -0.5005
15938SOL    HW247993   5.894   5.806   4.254  0.2145 -0.3569  0.3740
15939SOL     OW47994   7.305   7.771   2.624  0.0149  0.0975 -0.1319
15939SOL    HW147995   7.325   7.729   2.713  2.0078 -0.4696 -0.8096
15939SOL    HW247996   7.334   7.867   2.626 -1.4095  0.5426  0.3122
15940SOL     OW47997   2.683   8.854   6.295  0.3528  0.0834  0.4136
15940SOL    HW147998   2.744   8.895   6.227  0.0235  0.4230  0.3201
15940SOL    HW247999   2.621   8.923   6.330  1.0941  0.1204  1.7140
15941SOL     OW48000   5.688   8.094   0.973  0.2360 -0.4110  0.0872
15941SOL    HW148001   5.757   8.142   1.027 -0.9209  0.4938  0.8142
15941SOL    HW248002   5.633   8.036   1.033 -0.4313 -0.1643 -0.2702
15942SOL     OW48003   0.893   5.553   3.042 -0.0929  0.4326 -0.2468
15942SOL    HW148004   0.798   5.584   3.042 -0.3236 -0.2349  0.6079
15942SOL    HW248005   0.951   5.619   3.090 -0.1255  0.8192 -0.7348
15943SOL     OW48006   2.722   6.304   6.952 -0.8392 -0.7888 -0.2239
15943SOL    HW148007   2.712   6.212   6.916  2.2987 -0.6577 -1.8048
15943SOL    HW248008   2.710   6.370   6.879 -1.0118 -0.0546  0.4493
15944SOL     OW48009   6.020   5.601   1.711  0.2268  0.0970  0.3972
15944SOL    HW148010   5.959   5.523   1.696  1.6753 -0.9582 -0.3221
15944SOL    HW248011   6.049   5.638   1.623  0.3498  0.8009  0.7279
15945SOL     OW48012   7.785   0.570   2.202 -0.5616  0.4110 -0.7967
15945SOL    HW148013   7.798   0.645   2.138 -0.4378  0.3156 -0.8835
15945SOL    HW248014   7.695   0.577   2.245 -0.0644  1.3263  0.1350
15946SOL     OW48015   1.044   6.174   5.485  0.3765 -0.8233  0.1746
15946SOL    HW148016   1.045   6.087   5.535  2.7681 -2.0935 -1.8987
15946SOL    HW248017   0.962   6.178   5.428 -0.6954 -0.8302  1.6561
15947SOL     OW48018   8.116   0.968   6.688  0.1003 -0.4086 -0.4071
15947SOL    HW148019   8.203   1.016   6.679  1.1363 -2.4727 -2.2092
15947SOL    HW248020   8.107   0.933   6.782  0.2841  1.4028  0.3224
15948SOL     OW48021   0.469   0.365   1.166 -0.1819  0.6768  0.0215
15948SOL    HW148022   0.426   0.420   1.237 -0.8085 -1.8755  1.7421
15948SOL    HW248023   0.399   0.332   1.103 -0.0430  0.4908 -0.0351
15949SOL     OW48024   5.384   0.830   1.036 -0.2329  0.0142 -0.2232
15949SOL    HW148025   5.470   0.871   1.005 -0.5961  0.7189 -0.3250
15949SOL    HW248026   5.394   0.797   1.130  0.2823 -0.3261 -0.3948
15950SOL     OW48027   2.442   2.694   5.720  0.3973  0.4629  0.2472
15950SOL    HW148028   2.522   2.692   5.661  0.4345  0.4878  0.2966
15950SOL    HW248029   2.471   2.698   5.816  0.3656  3.0339  0.2119
15951SOL     OW48030   8.260   2.139   3.949 -0.2563 -0.5062  0.0961
15951SOL    HW148031   8.204   2.058   3.964 -1.7298  0.7167  1.6832
15951SOL    HW248032   8.207   2.208   3.899 -0.3726  0.7790  1.8809
15952SOL     OW48033   5.181   0.640   8.057  0.4774  0.5506 -0.2598
15952SOL    HW148034   5.114   0.620   8.128 -0.0821 -0.2736 -0.9860
15952SOL    HW248035   5.151   0.720   8.004  0.6645  0.8880  0.1397
15953SOL     OW48036   1.252   7.199   6.354 -0.0970 -0.2584 -0.0412
15953SOL    HW148037   1.312   7.215   6.433 -1.5094 -0.2610  1.0757
15953SOL    HW248038   1.219   7.105   6.355 -1.0478  0.0642  0.0461
15954SOL     OW48039   6.731   4.719   4.902  0.3356 -0.1473  0.8935
15954SOL    HW148040   6.690   4.649   4.842 -0.6572 -0.0256  1.4024
15954SOL    HW248041   6.701   4.809   4.872  1.9731  0.1222 -0.0334
15955SOL     OW48042   2.011   2.305   3.988  0.4620 -0.3697 -0.1195
15955SOL    HW148043   2.049   2.362   4.062  1.3020 -1.1812  0.0938
15955SOL    HW248044   1.972   2.222   4.026 -1.2406  0.2819 -0.3838
15956SOL     OW48045   0.074   4.445   4.656 -0.3456 -0.8288 -0.3006
15956SOL    HW148046  -0.002   4.387   4.685 -0.7306  0.3059  1.1039
15956SOL    HW248047   0.038   4.530   4.616  0.1687 -0.5753 -0.2363
15957SOL     OW48048   1.857   4.976   4.827  0.2636 -0.3518  0.4177
15957SOL    HW148049   1.946   4.997   4.867  0.5047  0.3964 -0.4796
15957SOL    HW248050   1.859   4.883   4.789  1.3406  0.3126 -1.3258
15958SOL     OW48051   0.731   7.878   2.160  0.0080 -0.9380  0.2355
15958SOL    HW148052   0.717   7.977   2.155 -1.6800 -1.1604 -0.2886
15958SOL    HW248053   0.766   7.845   2.073 -0.4991 -0.9220  0.0179
15959SOL     OW48054   4.665   1.819   8.838  0.0013  0.0404  0.2984
15959SOL    HW148055   4.703   1.747   8.779 -0.9724 -0.7349  0.5935
15959SOL    HW248056   4.565   1.812   8.838 -0.0564  0.7651  1.1356
15960SOL     OW48057   2.207   5.386   3.102  0.0815 -0.2437 -0.4704
15960SOL    HW148058   2.181   5.478   3.073 -1.6776 -0.8006 -0.7836
15960SOL    HW248059   2.306   5.375   3.093  0.3797  1.7438 -0.0087
15961SOL     OW48060   0.052   3.363   8.742 -0.2872 -0.2877  0.4654
15961SOL    HW148061   0.029   3.268   8.720 -0.4212 -0.3865  1.0278
15961SOL    HW248062   0.149   3.379   8.724 -0.1433 -0.6789  0.8848
15962SOL     OW48063   1.745   2.023   6.709 -0.1435  0.0421  0.0401
15962SOL    HW148064   1.756   1.944   6.650 -1.1969 -0.7993  0.9149
15962SOL    HW248065   1.687   2.091   6.664  0.7125  0.2908 -0.6902
15963SOL     OW48066   6.493   7.613   5.527 -0.6898 -0.1822 -0.7164
15963SOL    HW148067   6.502   7.601   5.626 -2.2769  0.6110 -0.4547
15963SOL    HW248068   6.512   7.526   5.482  4.0952  0.2245 -0.1123
15964SOL     OW48069   6.825   7.679   8.369  0.0601 -0.1527  0.4818
15964SOL    HW148070   6.877   7.623   8.433  3.2559  0.0608 -1.7102
15964SOL    HW248071   6.879   7.760   8.345 -0.9781 -0.2200 -2.4397
15965SOL     OW48072   6.662   5.880   2.328  0.6260 -0.0839  0.5496
15965SOL    HW148073   6.668   5.965   2.276  0.8954 -1.1248 -1.2116
15965SOL    HW248074   6.566   5.850   2.332  0.6692 -0.2850  0.1487
15966SOL     OW48075   6.296   0.380   5.217  0.1051  0.6141  0.0360
15966SOL    HW148076   6.355   0.357   5.140 -0.4185  1.1695 -0.5453
15966SOL    HW248077   6.340   0.353   5.303  0.9621  0.5455 -0.4199
15967SOL     OW48078   6.362   5.028   6.741  0.3353  0.3332 -0.1348
15967SOL    HW148079   6.273   5.064   6.769  1.4041  3.0504  0.1375
15967SOL    HW248080   6.422   5.022   6.821  0.4837 -1.3741 -0.3334
15968SOL     OW48081   0.897   7.227   5.306 -0.1772 -0.3367  0.0707
15968SOL    HW148082   0.821   7.177   5.263  0.4411 -1.3998  0.1693
15968SOL    HW248083   0.897   7.210   5.404  0.0585 -0.1669  0.0998
15969SOL     OW48084   0.804   7.638   6.378  0.0297 -0.5869 -0.3150
15969SOL    HW148085   0.841   7.697   6.306  0.5748 -1.6949 -0.9675
15969SOL    HW248086   0.720   7.594   6.345 -0.1647 -0.4810  0.0303
15970SOL     OW48087   7.960   7.482   4.692 -0.5595 -0.2372  0.1929
15970SOL    HW148088   8.052   7.505   4.660  0.1575 -1.3801  1.3400
15970SOL    HW248089   7.897   7.555   4.667  0.5602  0.3497 -1.0326
15971SOL     OW48090   7.785   7.044   1.527  0.4599 -0.4256 -0.1066
15971SOL    HW148091   7.773   7.077   1.621 -0.5609 -2.3714  0.5108
15971SOL    HW248092   7.695   7.029   1.485  0.8902  1.0094 -1.6561
15972SOL     OW48093   6.016   0.440   6.779  0.0398 -0.2206  0.1214
15972SOL    HW148094   6.103   0.429   6.827 -0.1837  0.5702  0.7407
15972SOL    HW248095   5.976   0.350   6.761  0.3005 -0.5539  1.1127
15973SOL     OW48096   0.218   1.119   2.744  0.6965 -0.3545 -0.0200
15973SOL    HW148097   0.244   1.155   2.834  0.9962  1.1990 -0.7039
15973SOL    HW248098   0.275   1.039   2.723  2.9206  1.1791 -0.1764
15974SOL     OW48099   1.006   4.003   5.816  0.0605  0.6417  0.3027
15974SOL    HW148100   1.064   4.084   5.826  1.1535 -0.0959  0.1289
15974SOL    HW248101   0.916   4.031   5.783  0.8123  1.6708 -1.0127
15975SOL     OW48102   2.465   3.151   1.599 -0.2962 -0.0060 -0.0882
15975SOL    HW148103   2.534   3.094   1.643  0.9224  2.2120  1.0152
15975SOL    HW248104   2.463   3.131   1.500  1.7027 -0.3214 -0.0986
15976SOL     OW48105   4.219   6.310   8.116  0.5429 -0.2356 -0.0574
15976SOL    HW148106   4.231   6.283   8.212 -1.1765  0.6723  0.4371
15976SOL    HW248107   4.279   6.387   8.096 -1.5940  1.9182  1.3557
15977SOL     OW48108   2.099   1.973   6.237 -0.3412  0.0032 -0.4403
15977SOL    HW148109   2.137   1.986   6.146 -0.3439  0.1875 -0.4153
15977SOL    HW248110   2.011   1.927   6.230  0.5674 -1.8688 -0.4125
15978SOL     OW48111   6.858   4.266   2.510  0.1224  0.4191 -0.5259
15978SOL    HW148112   6.793   4.290   2.438 -0.7316  0.7366  0.3327
15978SOL    HW248113   6.841   4.323   2.591 -0.4278 -1.4508  0.7379
15979SOL     OW48114   7.495   8.821   5.956  0.3302  0.3292  0.0154
15979SOL    HW148115   7.485   8.722   5.971  0.1023 -0.1906 -2.9431
15979SOL    HW248116   7.414   8.855   5.908  1.0497  1.6733 -0.2848
15980SOL     OW48117   0.413   2.390   0.796 -0.6059  0.2019 -0.2392
15980SOL    HW148118   0.454   2.310   0.841  1.5929  2.3728  1.9315
15980SOL    HW248119   0.324   2.408   0.836  0.1313  0.4578  1.3885
15981SOL     OW48120   3.528   6.533   7.769 -0.5711  0.0331  0.3414
15981SOL    HW148121   3.583   6.614   7.749  0.5561 -0.7911 -0.0143
15981SOL    HW248122   3.455   6.524   7.701  1.2392 -0.9541 -1.6074
15982SOL     OW48123   7.392   3.967   7.084  0.2296 -0.0439  0.2847
15982SOL    HW148124   7.359   4.053   7.124 -0.0607  0.0389 -0.1344
15982SOL    HW248125   7.462   3.928   7.144  1.0707  0.9843  0.0099
15983SOL     OW48126   0.258   2.129   3.683  0.2453  0.0113  0.1151
15983SOL    HW148127   0.354   2.142   3.709 -0.1029  2.8784  0.3020
15983SOL    HW248128   0.200   2.167   3.755 -1.0410 -0.7974 -0.4660
15984SOL     OW48129   0.144   3.815   3.472  0.5862 -0.5579  0.7942
15984SOL    HW148130   0.073   3.852   3.411  0.9937  0.8553  1.1475
15984SOL    HW248131   0.223   3.876   3.471  0.6754 -0.6044  2.5906
15985SOL     OW48132   5.494   7.428   5.637  0.2558 -0.0390  0.1832
15985SOL    HW148133   5.558   7.492   5.594 -1.6399  1.1279 -1.0731
15985SOL    HW248134   5.545   7.364   5.695  2.6364  0.1115 -1.5911
15986SOL     OW48135   0.291   7.118   8.309  0.2005 -0.0597  0.0026
15986SOL    HW148136   0.378   7.078   8.281  1.0129  0.4024  1.7126
15986SOL    HW248137   0.218   7.049   8.298  0.6131 -0.2257 -2.0848
15987SOL     OW48138   4.563   8.172   5.161  0.3315  0.0579  1.7384
15987SOL    HW148139   4.489   8.210   5.217 -0.7627  1.2477 -0.3978
15987SOL    HW248140   4.641   8.150   5.220 -0.2313  2.4831  3.5650
15988SOL     OW48141   1.266   8.251   3.958 -0.0145 -0.1719  0.0774
15988SOL    HW148142   1.216   8.323   4.008  0.4417 -0.3898  0.8653
15988SOL    HW248143   1.348   8.290   3.916  0.5932 -0.3442  1.0648
15989SOL     OW48144   4.009   3.763   1.008  0.1513  0.5200  0.4801
15989SOL    HW148145   4.095   3.794   1.049 -0.2431  0.6613  1.2040
15989SOL    HW248146   4.011   3.663   0.997  0.5387  0.5580  0.1837
15990SOL     OW48147   2.163   8.112   4.779 -0.4849  0.1710 -0.4255
15990SOL    HW148148   2.139   8.029   4.729  2.6715 -0.7066 -0.7057
15990SOL    HW248149   2.189   8.184   4.715  1.1559 -0.1606 -0.1998
15991SOL     OW48150   1.804   5.347   7.990  0.0794 -0.1315  0.8119
15991SOL    HW148151   1.769   5.257   7.960  0.8710 -0.3393  0.4854
15991SOL    HW248152   1.841   5.339   8.082 -1.2889  0.2412  1.4296
15992SOL     OW48153   3.453   3.284   6.099 -0.6879  0.2045 -0.3747
15992SOL    HW148154   3.418   3.222   6.168  0.7777 -0.8289 -0.5036
15992SOL    HW248155   3.489   3.366   6.142 -1.9605  0.6605 -0.1409
15993SOL     OW48156   0.940   2.249   0.124  0.1727  0.1081 -0.0613
15993SOL    HW148157   0.935   2.266   0.223 -1.2202  0.5878 -0.1860
15993SOL    HW248158   0.935   2.336   0.076 -0.1111 -0.1911 -0.5766
15994SOL     OW48159   0.022   6.108   8.655  0.4833 -0.3846  0.0652
15994SOL    HW148160   0.087   6.035   8.676  0.6441 -0.2859 -0.0755
15994SOL    HW248161  -0.035   6.081   8.577  1.3167  0.0915 -0.7338
15995SOL     OW48162   0.850   3.093   6.995  0.3532  0.5711 -0.0940
15995SOL    HW148163   0.825   3.021   6.930 -0.7188  0.6360  0.2192
15995SOL    HW248164   0.940   3.074   7.034  0.3065 -0.3243 -0.4093
15996SOL     OW48165   5.650   2.176   3.040  0.4807  0.2159  0.2049
15996SOL    HW148166   5.694   2.266   3.034  1.7544 -0.3947  0.0962
15996SOL    HW248167   5.555   2.188   3.067  0.6825  1.5830  0.4059
15997SOL     OW48168   1.513   4.557   4.328 -0.0309  0.1705 -0.4427
15997SOL    HW148169   1.417   4.550   4.300 -0.6194  0.9974  1.2875
15997SOL    HW248170   1.524   4.630   4.395  1.1541 -2.1359  2.0903
15998SOL     OW48171   4.874   1.473   5.363 -0.3544 -0.2843  0.1507
15998SOL    HW148172   4.899   1.377   5.350 -0.7279 -0.5452  1.2389
15998SOL    HW248173   4.954   1.525   5.392  0.0328 -0.0915 -1.2221
15999SOL     OW48174   0.047   5.619   4.051 -0.4279 -0.1373 -0.2005
15999SOL    HW148175   0.041   5.522   4.076  0.9477 -0.9610 -2.6957
15999SOL    HW248176  -0.028   5.642   3.990 -0.6939  0.3637  0.3094
16000SOL     OW48177   6.289   8.710   3.646 -0.7070 -0.0105 -0.0995
16000SOL    HW148178   6.325   8.627   3.689 -0.5674 -0.6972 -1.4909
16000SOL    HW248179   6.365   8.761   3.606 -1.0721 -0.6583 -1.6775
16001SOL     OW48180   5.294   6.652   4.420  0.2212 -0.3908  0.1100
16001SOL    HW148181   5.245   6.627   4.503 -1.7128  2.3538 -0.0497
16001SOL    HW248182   5.328   6.746   4.429 -0.1151  0.0168 -2.1781
16002SOL     OW48183   2.669   2.597   0.125 -0.1841  0.1414  0.7620
16002SOL    HW148184   2.658   2.680   0.180 -0.3425  0.5944  0.0580
16002SOL    HW248185   2.579   2.555   0.111 -0.3286  0.7646 -0.2675
16003SOL     OW48186   0.621   4.252   8.351 -0.6408 -0.2014  0.0718
16003SOL    HW148187   0.697   4.216   8.405 -1.4708 -1.3798  0.4856
16003SOL    HW248188   0.624   4.352   8.352  0.1790 -0.2206  1.1232
16004SOL     OW48189   7.488   2.523   3.215  0.0018 -0.6938  0.4370
16004SOL    HW148190   7.564   2.459   3.226 -1.3740 -2.3045  0.7998
16004SOL    HW248191   7.403   2.473   3.202 -1.2850  1.0210  1.7328
16005SOL     OW48192   5.047   4.156   1.608 -0.7542  0.6341 -0.2625
16005SOL    HW148193   5.032   4.058   1.615 -2.2072  0.9153  1.1932
16005SOL    HW248194   5.029   4.186   1.514  1.3777 -0.6988 -1.1680
16006SOL     OW48195   1.280   2.391   3.234 -0.1763 -0.1189  0.1510
16006SOL    HW148196   1.250   2.406   3.140 -0.1688 -1.2986 -0.0496
16006SOL    HW248197   1.276   2.294   3.255 -3.1304  0.3272  2.3708
16007SOL     OW48198   4.815   4.778   5.275  0.6398 -0.0179 -0.2669
16007SOL    HW148199   4.791   4.775   5.178  2.3373  0.4989 -0.7310
16007SOL    HW248200   4.895   4.720   5.291  0.5001  0.0714  0.7878
16008SOL     OW48201   6.228   6.342   3.384  0.3586  0.3041 -0.4634
16008SOL    HW148202   6.243   6.431   3.342 -0.6462  0.8990  0.3853
16008SOL    HW248203   6.159   6.292   3.331  1.8433 -0.5482 -1.6980
16009SOL     OW48204   2.114   4.506   3.012 -0.4268 -0.0182  0.6068
16009SOL    HW148205   2.031   4.494   2.959 -0.8542  0.4284  1.1635
16009SOL    HW248206   2.138   4.418   3.055 -1.6644  0.2560  1.9447
16010SOL     OW48207   6.722   2.025   1.089  0.1968 -0.1611  0.4376
16010SOL    HW148208   6.681   1.946   1.136 -0.2220  0.5708  1.3378
16010SOL    HW248209   6.741   2.097   1.156  2.3484 -0.2109 -0.0669
16011SOL     OW48210   1.359   6.841   0.669 -0.4437 -0.0906 -0.1688
16011SOL    HW148211   1.311   6.776   0.728 -0.7965 -0.4556 -0.8470
16011SOL    HW248212   1.292   6.902   0.626 -0.1810  0.2187 -0.1421
16012SOL     OW48213   6.205   3.249   3.991  0.2262  0.4185  0.2689
16012SOL    HW148214   6.286   3.194   4.010  1.2465  1.7480 -0.0531
16012SOL    HW248215   6.219   3.303   3.908 -2.2434 -1.6368 -1.6693
16013SOL     OW48216   3.945   2.627   8.282  0.2773  0.4604  0.1302
16013SOL    HW148217   3.972   2.678   8.363 -1.0671  0.7254  0.4414
16013SOL    HW248218   3.847   2.608   8.285  0.0682  0.9720 -1.6941
16014SOL     OW48219   3.688   2.081   0.568 -0.2837  0.2155 -0.5388
16014SOL    HW148220   3.683   2.043   0.475  0.7059  3.0520 -1.8833
16014SOL    HW248221   3.678   2.007   0.635  0.2527 -2.1531 -2.8818
16015SOL     OW48222   8.856   0.227   6.800  0.7248 -0.3235  0.6215
16015SOL    HW148223   8.866   0.185   6.890  1.1360 -0.8658  0.3212
16015SOL    HW248224   8.875   0.160   6.728  0.7313  0.1911  0.1295
16016SOL     OW48225   5.683   8.531   0.487  0.4351 -0.2196  0.4312
16016SOL    HW148226   5.751   8.547   0.559  1.4162 -0.3743 -0.4404
16016SOL    HW248227   5.613   8.468   0.521 -0.6608  1.8196  2.1782
16017SOL     OW48228   4.173   8.682   3.886 -0.0167  0.0676 -0.1542
16017SOL    HW148229   4.112   8.751   3.923 -2.3089  0.3154 -3.8876
16017SOL    HW248230   4.145   8.591   3.919 -0.5384  0.4294  0.4124
16018SOL     OW48231   3.995   7.474   0.229  0.2488  0.8090 -0.1787
16018SOL    HW148232   4.060   7.550   0.231  0.9247  0.2702 -0.7971
16018SOL    HW248233   3.947   7.474   0.142 -0.6982  1.2857  0.3333
16019SOL     OW48234   4.944   3.659   0.402  0.1251 -0.4316 -0.5341
16019SOL    HW148235   5.008   3.706   0.342 -1.8724  2.1283 -0.8384
16019SOL    HW248236   4.979   3.659   0.496  0.8804  0.2614 -0.8098
16020SOL     OW48237   3.608   5.274   6.366 -0.2220 -0.5110 -0.0703
16020SOL    HW148238   3.560   5.285   6.453  0.5874  0.1834  0.2952
16020SOL    HW248239   3.676   5.201   6.374  0.7290  0.3920  0.2797
16021SOL     OW48240   0.319   6.896   2.066  1.1105 -0.5807 -0.0226
16021SOL    HW148241   0.264   6.963   2.117  0.0514 -0.1466 -1.6715
16021SOL    HW248242   0.297   6.804   2.098  0.5048 -0.3145  0.3456
16022SOL     OW48243   8.415   3.966   6.748 -0.5377 -0.5028 -0.2629
16022SOL    HW148244   8.339   3.902   6.751 -1.7666  0.9129  2.0910
16022SOL    HW248245   8.386   4.054   6.785  1.5503  0.9274 -1.7687
16023SOL     OW48246   1.142   6.684   3.566 -0.5668 -0.7824 -0.2332
16023SOL    HW148247   1.232   6.705   3.603 -0.3722 -1.0073 -0.5820
16023SOL    HW248248   1.097   6.769   3.538 -0.0095 -0.7669 -1.1099
16024SOL     OW48249   0.115   1.553   4.192  0.1400 -0.6837 -0.1813
16024SOL    HW148250   0.078   1.576   4.282  0.8181 -1.4015  0.2920
16024SOL    HW248251   0.039   1.532   4.129 -0.4853  1.9916 -0.4456
16025SOL     OW48252   4.262   4.334   3.407 -0.3208  0.5502  0.0007
16025SOL    HW148253   4.318   4.405   3.364 -0.0739  0.6005  0.4063
16025SOL    HW248254   4.291   4.320   3.502  1.2504 -1.7589 -0.7201
16026SOL     OW48255   5.203   2.272   8.464 -0.6455  0.8696 -0.0181
16026SOL    HW148256   5.146   2.280   8.382 -1.1214  0.3320  0.2483
16026SOL    HW248257   5.223   2.363   8.499 -0.4080  1.1104 -0.7461
16027SOL     OW48258   0.941   3.869   7.881 -0.1208  0.5899 -0.3349
16027SOL    HW148259   0.873   3.802   7.852 -0.4109  0.6972  0.0924
16027SOL    HW248260   0.910   3.915   7.965  1.0421 -0.2474  0.5830
16028SOL     OW48261   7.322   7.116   5.755 -0.2469 -0.3562  0.3777
16028SOL    HW148262   7.356   7.122   5.848 -1.8791  1.1042  0.9309
16028SOL    HW248263   7.269   7.198   5.733 -1.2520 -1.3876 -1.2902
16029SOL     OW48264   7.180   2.095   2.439  0.2031  0.0541 -0.2063
16029SOL    HW148265   7.139   2.164   2.379  0.0773  0.0159 -0.1650
16029SOL    HW248266   7.277   2.116   2.453  0.3471 -0.1801 -0.7873
16030SOL     OW48267   5.007   4.360   8.126 -0.1389 -0.2296 -0.1692
16030SOL    HW148268   5.060   4.372   8.042 -0.9712 -0.6619 -0.7760
16030SOL    HW248269   5.041   4.280   8.175  0.4558  0.1174 -0.0093
16031SOL     OW48270   7.119   0.784   4.390 -0.4699 -0.1041  0.4293
16031SOL    HW148271   7.058   0.844   4.442 -0.3422 -0.2120  0.7068
16031SOL    HW248272   7.088   0.778   4.296 -1.9256 -1.5388  0.9546
16032SOL     OW48273   0.617   8.335   4.348 -0.1996 -0.0990 -0.6898
16032SOL    HW148274   0.584   8.262   4.408  0.8232 -0.8854 -1.0561
16032SOL    HW248275   0.681   8.297   4.281 -1.1576  0.7962 -2.1670
16033SOL     OW48276   3.469   3.024   0.454  0.3926 -0.5578  0.0085
16033SOL    HW148277   3.471   3.100   0.389  0.2991  0.5522  1.2493
16033SOL    HW248278   3.542   3.036   0.521 -0.5423 -0.7314  1.0887
16034SOL     OW48279   0.838   0.029   1.777  0.2769 -0.3012  0.0326
16034SOL    HW148280   0.832   0.127   1.760  1.1563 -0.2984 -0.3091
16034SOL    HW248281   0.788  -0.021   1.706  0.0417 -0.1103  0.0648
16035SOL     OW48282   0.129   6.025   7.460 -0.4173 -0.3908  0.2076
16035SOL    HW148283   0.066   6.102   7.455 -0.8785 -0.7970 -0.5263
16035SOL    HW248284   0.092   5.948   7.407  1.3148 -0.1853 -1.4389
16036SOL     OW48285   4.625   6.938   3.440  0.1656 -0.0290 -0.0862
16036SOL    HW148286   4.723   6.951   3.455  0.2354  0.2564 -0.7495
16036SOL    HW248287   4.610   6.909   3.345 -0.1512 -2.7023  0.6765
16037SOL     OW48288   6.520   7.520   1.358  0.3912 -0.1201  0.2916
16037SOL    HW148289   6.459   7.520   1.279  1.7307 -1.5649 -0.7911
16037SOL    HW248290   6.591   7.590   1.345  1.0043 -0.8093 -0.1193
16038SOL     OW48291   8.855   3.604   6.514  0.3249 -0.1103  0.4085
16038SOL    HW148292   8.931   3.633   6.456  3.1624 -2.2970  2.7468
16038SOL    HW248293   8.820   3.683   6.565  2.0517  0.6947  0.4101
16039SOL     OW48294   3.077   3.716   4.002  0.3184 -0.1690  0.0480
16039SOL    HW148295   3.134   3.634   3.991  0.9462 -0.0215  1.9415
16039SOL    HW248296   2.981   3.691   3.985  0.7452 -0.7328 -1.7566
16040SOL     OW48297   2.613   3.362   6.936 -0.2721 -0.3480  0.0034
16040SOL    HW148298   2.586   3.444   6.886 -1.8240 -0.2572  0.9484
16040SOL    HW248299   2.698   3.380   6.987  0.7978 -0.1538 -1.7722
16041SOL     OW48300   1.899   4.730   8.693 -0.0015 -0.2403 -0.4994
16041SOL    HW148301   1.998   4.735   8.707  0.0020  2.1802 -1.0947
16041SOL    HW248302   1.875   4.639   8.660  1.8357 -1.2918  0.8606
16042SOL     OW48303   5.195   4.706   6.125 -0.3307 -0.5954 -0.6990
16042SOL    HW148304   5.246   4.754   6.054  0.9754 -2.5270 -1.1515
16042SOL    HW248305   5.109   4.673   6.088 -0.9819  0.8317 -0.5371
16043SOL     OW48306   5.038   2.205   7.252 -0.2216 -0.2383  0.2803
16043SOL    HW148307   4.978   2.282   7.278  0.1495  0.3955 -0.6789
16043SOL    HW248308   5.133   2.229   7.273 -0.2174 -0.9432  1.1079
16044SOL     OW48309   2.120   2.688   4.180  0.4146  0.3087 -0.2257
16044SOL    HW148310   2.113   2.597   4.221  5.0971 -0.6669 -1.0227
16044SOL    HW248311   2.098   2.682   4.082  0.8649 -0.0465 -0.3113
16045SOL     OW48312   0.638   7.103   1.530  0.0702  0.3451 -0.3259
16045SOL    HW148313   0.694   7.157   1.467 -1.0697 -1.1512 -2.7515
16045SOL    HW248314   0.678   7.012   1.541 -0.5137  0.1274  0.0245
16046SOL     OW48315   3.059   4.316   0.640  0.3013  0.1922  0.3278
16046SOL    HW148316   3.044   4.324   0.541  0.4036 -1.6957  0.1208
16046SOL    HW248317   2.990   4.254   0.679  1.3496 -0.5159  1.1174
16047SOL     OW48318   5.128   0.233   1.887  0.2065 -0.2836  0.2204
16047SOL    HW148319   5.210   0.223   1.943  0.1277 -1.0333  0.2081
16047SOL    HW248320   5.063   0.293   1.934 -0.2893 -1.7250  1.4495
16048SOL     OW48321   5.310   5.398   8.575  0.0003  0.4159  0.1874
16048SOL    HW148322   5.297   5.474   8.639 -3.3002 -0.4601  0.7122
16048SOL    HW248323   5.276   5.424   8.485 -0.1432 -0.0930  0.0942
16049SOL     OW48324   3.543   4.855   6.921 -0.3482  0.2389  0.1451
16049SOL    HW148325   3.532   4.882   7.017 -0.9836 -0.5497  0.3003
16049SOL    HW248326   3.455   4.828   6.884 -0.1453  0.7696 -0.7464
16050SOL     OW48327   2.715   1.925   1.684 -0.2392  0.1876 -0.4902
16050SOL    HW148328   2.798   1.869   1.683  0.2744  0.9316 -0.4590
16050SOL    HW248329   2.689   1.948   1.591 -0.5538 -0.2377 -0.5128
16051SOL     OW48330   6.558   7.076   8.746  0.3441 -0.3561 -0.3150
16051SOL    HW148331   6.468   7.115   8.732  1.0082  1.3191 -0.1287
16051SOL    HW248332   6.565   6.989   8.697 -0.4750  0.7836 -2.6073
16052SOL     OW48333   2.288   6.153   5.829 -0.1450 -0.4667 -0.2488
16052SOL    HW148334   2.311   6.126   5.923 -1.1813 -0.4828  0.0086
16052SOL    HW248335   2.190   6.139   5.813  0.0812 -0.7845 -1.4478
16053SOL     OW48336   8.456   5.726   5.324 -0.3990 -0.6654 -0.1448
16053SOL    HW148337   8.388   5.656   5.350 -0.4334 -0.7395 -0.4232
16053SOL    HW248338   8.409   5.811   5.302 -0.4633 -0.8891 -0.9258
16054SOL     OW48339   3.938   6.976   4.293  0.2041  0.3133  0.1782
16054SOL    HW148340   3.982   6.975   4.203  0.3609  0.8786  0.2462
16054SOL    HW248341   3.901   6.885   4.313  1.7825 -0.3265  0.3299
16055SOL     OW48342   0.660   0.407   2.046  0.6298 -0.0132 -0.1352
16055SOL    HW148343   0.603   0.486   2.069 -0.4546 -0.8973  0.3232
16055SOL    HW248344   0.647   0.384   1.950 -0.9677 -1.1006  0.3082
16056SOL     OW48345   3.919   3.414   2.744  0.2899  0.3721  0.4494
16056SOL    HW148346   3.944   3.347   2.814  0.4390  0.0440  0.0824
16056SOL    HW248347   3.849   3.374   2.683  0.8336  0.3195 -0.1468
16057SOL     OW48348   8.818   7.824   0.195 -0.6663 -0.1282 -0.0267
16057SOL    HW148349   8.839   7.747   0.255  0.4470 -0.1469 -0.4164
16057SOL    HW248350   8.786   7.901   0.250 -0.3626 -0.3867  0.5219
16058SOL     OW48351   7.769   1.279   0.769  0.3125 -0.0069 -0.6263
16058SOL    HW148352   7.681   1.250   0.805 -0.3159  1.3758 -0.9694
16058SOL    HW248353   7.807   1.208   0.709 -0.8449 -0.3715 -0.9442
16059SOL     OW48354   0.519   6.572   1.934  0.2411  0.0974 -0.0616
16059SOL    HW148355   0.453   6.601   2.003  2.1478  2.4997  0.9174
16059SOL    HW248356   0.518   6.636   1.858 -1.0300 -1.8976 -1.8501
16060SOL     OW48357   6.043   1.599   1.750  0.1636 -0.2855 -0.1391
16060SOL    HW148358   5.959   1.544   1.750 -0.0797  0.0631 -0.9669
16060SOL    HW248359   6.018   1.696   1.747  0.5937 -0.1600  0.4033
16061SOL     OW48360   4.413   1.565   2.589  0.7603  0.2477  0.1825
16061SOL    HW148361   4.491   1.503   2.579  1.4171  1.1792 -0.6312
16061SOL    HW248362   4.438   1.641   2.649 -0.4281 -0.8306  2.2001
16062SOL     OW48363   2.826   4.459   5.288  0.0629 -0.0392 -0.4922
16062SOL    HW148364   2.903   4.435   5.347 -0.6627 -1.0572  0.0821
16062SOL    HW248365   2.858   4.516   5.213  1.0178  1.2920  0.8659
16063SOL     OW48366   2.777   7.695   4.530 -0.4385 -0.9534 -0.2616
16063SOL    HW148367   2.761   7.598   4.516  0.7773 -1.3715  1.0887
16063SOL    HW248368   2.691   7.740   4.556 -1.3820 -1.3029 -2.5032
16064SOL     OW48369   3.685   7.504   5.954  0.9580  0.0967 -0.4345
16064SOL    HW148370   3.590   7.471   5.959  1.9328 -2.9515  0.0099
16064SOL    HW248371   3.712   7.511   5.858  0.3761  0.7535 -0.5587
16065SOL     OW48372   2.559   2.403   3.714  0.0776  0.2833  0.2585
16065SOL    HW148373   2.562   2.405   3.614  0.4681 -0.8760  0.2228
16065SOL    HW248374   2.531   2.492   3.749 -1.0539  0.4186 -0.9169
16066SOL     OW48375   0.130   7.099   1.003  0.0864  0.5172  0.4129
16066SOL    HW148376   0.169   7.153   1.077 -0.5453 -0.6007  1.5910
16066SOL    HW248377   0.068   7.030   1.040 -0.8210  0.4086 -1.2139
16067SOL     OW48378   4.989   6.331   3.665  0.2145  0.1241  0.3618
16067SOL    HW148379   4.999   6.431   3.670  0.1259  0.2975 -1.9693
16067SOL    HW248380   5.074   6.291   3.630  0.0667 -0.5836  0.7907
16068SOL     OW48381   2.156   7.667   3.574 -0.6037  0.1091  0.1154
16068SOL    HW148382   2.183   7.607   3.650  3.8524 -0.9280 -1.9381
16068SOL    HW248383   2.165   7.762   3.602  0.1181 -0.2536  1.1785
16069SOL     OW48384   2.596   5.097   2.266 -0.0646 -0.0085 -0.1693
16069SOL    HW148385   2.549   5.161   2.326 -0.6463 -0.1023 -0.5181
16069SOL    HW248386   2.693   5.091   2.293  0.0597  1.1987 -0.2845
16070SOL     OW48387   1.735   2.584   4.030 -0.8464 -0.3044  0.4477
16070SOL    HW148388   1.765   2.647   4.101  0.2760  0.0506 -0.3173
16070SOL    HW248389   1.746   2.490   4.061  2.2120 -0.2444 -0.1839
16071SOL     OW48390   2.436   4.865   0.242  0.0840 -0.7296 -0.2704
16071SOL    HW148391   2.452   4.792   0.308 -1.2222 -0.8735 -0.0803
16071SOL    HW248392   2.346   4.853   0.199  0.2554  0.2211 -0.9523
16072SOL     OW48393   7.749   7.122   8.240 -0.7176  0.3454 -0.4052
16072SOL    HW148394   7.673   7.187   8.233 -0.2267  0.9061 -0.6334
16072SOL    HW248395   7.715   7.033   8.269 -1.6162  0.2658 -1.6813
16073SOL     OW48396   6.308   8.241   0.996  0.8436  0.6255 -0.0283
16073SOL    HW148397   6.243   8.314   0.977 -0.4656 -0.0774  1.5478
16073SOL    HW248398   6.333   8.195   0.910  0.1871  1.6581 -0.7893
16074SOL     OW48399   6.920   0.301   1.244  0.3777 -0.7978  0.5067
16074SOL    HW148400   6.982   0.319   1.321  1.1040  0.3425 -0.3171
16074SOL    HW248401   6.959   0.228   1.188  1.1408  0.1078 -0.1631
16075SOL     OW48402   7.822   6.698   2.747 -0.8221 -0.6367  0.1880
16075SOL    HW148403   7.797   6.717   2.652 -1.5630 -0.5644  0.3945
16075SOL    HW248404   7.740   6.678   2.800 -0.2874 -2.3757  0.4437
16076SOL     OW48405   7.761   7.498   6.399  0.4240 -0.7318  0.0950
16076SOL    HW148406   7.770   7.414   6.451  2.2107  0.1752  1.3348
16076SOL    HW248407   7.836   7.560   6.421 -0.7207  1.1268 -0.9247
16077SOL     OW48408   6.849   8.631   0.929  0.4284  0.0095  0.2391
16077SOL    HW148409   6.847   8.725   0.962 -3.7019  0.5825 -0.9961
16077SOL    HW248410   6.895   8.627   0.840 -0.0061  1.0550 -0.0452
16078SOL     OW48411   5.105   7.944   8.703 -0.2735 -0.0151 -0.5607
16078SOL    HW148412   5.093   7.849   8.732 -0.9239  0.1942 -0.1319
16078SOL    HW248413   5.131   7.947   8.606 -0.1952 -0.6279 -0.5601
16079SOL     OW48414   3.431   1.626   6.531  0.3283  0.3056 -0.2718
16079SOL    HW148415   3.382   1.569   6.597  0.7399  0.2613  0.0029
16079SOL    HW248416   3.526   1.594   6.524  0.5495  0.9309 -0.1479
16080SOL     OW48417   7.419   2.591   6.955 -0.0777  0.0947  0.8273
16080SOL    HW148418   7.396   2.611   7.050 -0.3294  1.1252  0.5544
16080SOL    HW248419   7.518   2.599   6.943  0.1066 -1.2414  1.2699
16081SOL     OW48420   1.821   6.225   3.427  0.0675 -0.1337  0.2206
16081SOL    HW148421   1.833   6.282   3.347 -0.0686  0.9482  0.9561
16081SOL    HW248422   1.746   6.260   3.483  0.5737 -0.4901  1.1492
16082SOL     OW48423   5.125   8.410   2.082 -0.0756 -0.6808 -0.9676
16082SOL    HW148424   5.142   8.437   2.176  0.3801 -0.0442 -1.2260
16082SOL    HW248425   5.212   8.386   2.038 -0.3638 -1.7204 -1.0097
16083SOL     OW48426   5.856   6.739   2.047 -0.1529  0.2146  0.2149
16083SOL    HW148427   5.887   6.648   2.022  0.1168  0.0749  1.0282
16083SOL    HW248428   5.775   6.763   1.994  0.4128 -0.0577 -0.7824
16084SOL     OW48429   4.273   7.393   4.057  0.2683 -0.4783 -0.2675
16084SOL    HW148430   4.345   7.388   3.988  0.5408 -1.3096  0.0607
16084SOL    HW248431   4.242   7.301   4.080 -2.9020 -0.1103 -2.4412
16085SOL     OW48432   1.751   1.201   1.220 -0.4722 -0.6523  0.5565
16085SOL    HW148433   1.699   1.125   1.182 -0.1508 -0.8713  0.5501
16085SOL    HW248434   1.713   1.287   1.186  0.0498 -0.8493 -0.5934
16086SOL     OW48435   2.723   7.971   7.696 -0.2558  0.2568 -0.4170
16086SOL    HW148436   2.765   7.911   7.763  1.0398 -0.4015 -1.7570
16086SOL    HW248437   2.725   8.065   7.730  0.0057 -0.1105  0.6218
16087SOL     OW48438   2.273   5.696   0.623 -0.2388 -0.3194 -0.2552
16087SOL    HW148439   2.271   5.728   0.529  0.4614  0.3803 -0.0381
16087SOL    HW248440   2.328   5.613   0.629 -1.0592 -0.9088 -0.6074
16088SOL     OW48441   3.322   8.070   7.618  0.3971 -0.5776  0.0681
16088SOL    HW148442   3.365   7.987   7.654 -1.1819 -0.5776  2.1607
16088SOL    HW248443   3.373   8.150   7.649  0.8647 -0.6942 -0.3956
16089SOL     OW48444   2.666   3.824   5.686 -0.0622 -0.7742 -0.2109
16089SOL    HW148445   2.587   3.844   5.745  0.0170 -1.6364  0.2065
16089SOL    HW248446   2.685   3.903   5.628 -0.7044 -0.2389  0.2873
16090SOL     OW48447   7.254   4.136   3.231 -0.4758  0.3859  0.1554
16090SOL    HW148448   7.316   4.110   3.157 -0.9979 -0.8623  0.1375
16090SOL    HW248449   7.163   4.155   3.192 -0.8044 -0.4705  0.4804
16091SOL     OW48450   4.397   5.242   6.849 -0.1777 -0.3405  0.0775
16091SOL    HW148451   4.383   5.237   6.947 -1.3116 -1.2826 -0.1153
16091SOL    HW248452   4.381   5.152   6.808  0.4623 -0.0086 -0.9540
16092SOL     OW48453   3.700   5.657   0.514  0.0474 -0.2174 -0.2557
16092SOL    HW148454   3.741   5.610   0.435  0.1010  0.2075 -0.4805
16092SOL    HW248455   3.764   5.726   0.549  0.2623 -0.7953  0.5231
16093SOL     OW48456   6.988   8.539   8.526 -0.2832  0.0975  0.3481
16093SOL    HW148457   6.974   8.635   8.505  0.1267 -0.0067 -0.4486
16093SOL    HW248458   6.913   8.485   8.489 -0.4906  0.1072  0.7552
16094SOL     OW48459   5.508   6.909   0.570  0.2397 -0.3036 -0.8241
16094SOL    HW148460   5.558   6.942   0.490  0.2398  0.5714 -0.4770
16094SOL    HW248461   5.430   6.968   0.587  0.0635 -0.6636 -0.3558
16095SOL     OW48462   8.798   0.896   1.999  0.4080 -0.2580  0.4282
16095SOL    HW148463   8.752   0.829   1.940  0.6974 -0.2651  0.2108
16095SOL    HW248464   8.889   0.864   2.022  1.7017  1.3243 -2.0453
16096SOL     OW48465   0.579   0.482   5.379 -0.6610  0.5201  0.0954
16096SOL    HW148466   0.532   0.526   5.302 -1.5008  0.7662  0.7291
16096SOL    HW248467   0.612   0.552   5.441  0.5906  0.3467 -0.3486
16097SOL     OW48468   2.800   0.031   0.142  0.7398 -0.1831 -0.0657
16097SOL    HW148469   2.798   0.078   0.054 -1.4735 -2.0565 -1.1134
16097SOL    HW248470   2.845  -0.057   0.133  0.8041 -0.2520  0.7712
16098SOL     OW48471   1.304   3.362   2.885 -0.3235  0.2194 -0.1684
16098SOL    HW148472   1.305   3.353   2.984 -0.1766 -0.1384 -0.2004
16098SOL    HW248473   1.361   3.439   2.858  2.7989 -1.9153 -0.1810
16099SOL     OW48474   1.472   7.415   2.381 -0.9597  0.0929 -0.1796
16099SOL    HW148475   1.454   7.396   2.478 -1.1098  0.2454 -0.1770
16099SOL    HW248476   1.437   7.506   2.358  0.1247  0.5439 -0.0912
16100SOL     OW48477   2.694   7.942   0.693 -0.5428 -0.3202 -0.0731
16100SOL    HW148478   2.732   7.945   0.785 -2.0571 -1.5800  0.6525
16100SOL    HW248479   2.745   7.877   0.637  1.7096  1.9580 -0.8468
16101SOL     OW48480   5.072   4.894   1.997  0.0838  0.2014 -0.2882
16101SOL    HW148481   5.007   4.914   1.923  0.4650 -1.6129 -1.1969
16101SOL    HW248482   5.026   4.842   2.069 -0.1238  1.3939  0.4692
16102SOL     OW48483   3.181   0.694   8.520 -0.7034  0.4344 -0.3207
16102SOL    HW148484   3.230   0.703   8.607 -1.3810  1.5139 -0.0318
16102SOL    HW248485   3.226   0.624   8.463 -0.2757 -0.3086  0.8974
16103SOL     OW48486   4.591   1.185   4.248 -0.0842  0.4490 -0.7345
16103SOL    HW148487   4.662   1.254   4.257  1.6779 -0.8184 -3.6471
16103SOL    HW248488   4.518   1.219   4.189 -0.2461  0.5312 -0.4909
16104SOL     OW48489   3.387   0.460   0.914  0.4315 -0.0080 -0.0149
16104SOL    HW148490   3.461   0.435   0.976  1.6250 -0.2832 -1.4751
16104SOL    HW248491   3.337   0.377   0.887 -1.3865  0.3183  2.0473
16105SOL     OW48492   7.001   7.089   3.587 -0.1510  0.3038 -0.3079
16105SOL    HW148493   7.018   7.143   3.670 -1.2226 -0.1092  0.1927
16105SOL    HW248494   7.012   7.148   3.507  0.4272  0.8264  0.1476
16106SOL     OW48495   4.010   0.277   4.876  0.7132 -0.3456  0.3392
16106SOL    HW148496   4.024   0.183   4.844  1.3008  0.3131 -1.4581
16106SOL    HW248497   4.077   0.337   4.833 -0.0040  0.9979  1.0331
16107SOL     OW48498   3.735   8.664   6.841  0.0154 -0.2028  0.2682
16107SOL    HW148499   3.831   8.688   6.825  0.0351 -0.1952  0.3972
16107SOL    HW248500   3.721   8.644   6.938 -0.0482 -0.4947  0.1991
16108SOL     OW48501   3.067   2.935   3.420  0.0715 -0.6175 -0.3246
16108SOL    HW148502   2.981   2.909   3.462 -0.4057  1.2080 -0.0885
16108SOL    HW248503   3.139   2.872   3.450 -0.8091 -1.0682  0.9396
16109SOL     OW48504   8.015   4.751   3.045 -0.0681  0.0191  0.2820
16109SOL    HW148505   7.965   4.668   3.070  0.2296 -0.1275  0.3909
16109SOL    HW248506   8.080   4.729   2.972 -0.4943  0.3094 -0.1870
16110SOL     OW48507   4.141   4.349   2.443 -0.3097 -0.3728  0.2917
16110SOL    HW148508   4.135   4.448   2.450 -1.2773 -0.5223  2.5297
16110SOL    HW248509   4.237   4.321   2.439 -0.0223  0.6188  0.0589
16111SOL     OW48510   5.087   1.521   7.336  0.1213 -0.6042 -0.3679
16111SOL    HW148511   5.069   1.543   7.432  1.0853  0.0868 -0.3350
16111SOL    HW248512   5.069   1.424   7.320 -1.1197 -0.4929  0.2434
16112SOL     OW48513   2.392   4.889   3.082  0.3716 -0.2933  0.2698
16112SOL    HW148514   2.357   4.827   3.011 -1.8005  0.5777  0.5168
16112SOL    HW248515   2.468   4.942   3.045  1.2336 -1.9463 -0.4433
16113SOL     OW48516   3.675   7.655   8.717 -0.5902  0.0787 -0.0677
16113SOL    HW148517   3.679   7.627   8.813 -0.5114 -2.1456 -0.6798
16113SOL    HW248518   3.667   7.755   8.712  0.6042  0.3441  2.2143
16114SOL     OW48519   1.597   6.785   7.578 -0.3494  0.4806 -0.0572
16114SOL    HW148520   1.613   6.879   7.547 -0.1287  0.2234 -0.7426
16114SOL    HW248521   1.528   6.742   7.521 -0.4340  0.2166  0.2410
16115SOL     OW48522   8.089   4.134   8.608 -0.7010  0.0094  0.0605
16115SOL    HW148523   8.129   4.115   8.519  0.3274 -0.6831  0.6542
16115SOL    HW248524   7.992   4.109   8.606 -0.2880 -1.6846 -0.3556
16116SOL     OW48525   6.716   7.305   6.226  0.2986  0.0567 -0.5947
16116SOL    HW148526   6.704   7.403   6.243 -1.0068 -0.0549 -0.7584
16116SOL    HW248527   6.795   7.271   6.277 -0.1397  0.8880  0.6856
16117SOL     OW48528   8.081   6.846   2.435  0.3595  0.4996  0.2351
16117SOL    HW148529   8.102   6.749   2.449  0.5589  0.5978  0.6545
16117SOL    HW248530   8.057   6.862   2.339 -1.1446 -0.2267  0.4595
16118SOL     OW48531   1.856   6.299   8.149  0.1478  0.6711 -0.0103
16118SOL    HW148532   1.779   6.340   8.100  0.9698  1.4718 -0.6808
16118SOL    HW248533   1.919   6.371   8.178  1.6935 -0.0871 -1.3204
16119SOL     OW48534   7.780   6.878   4.493  0.0829 -0.0403 -0.0475
16119SOL    HW148535   7.695   6.890   4.442 -0.1547 -1.0881  0.0635
16119SOL    HW248536   7.760   6.871   4.590  0.2128 -0.9610 -0.0773
16120SOL     OW48537   3.152   8.758   1.795 -0.5060 -0.5271  0.0368
16120SOL    HW148538   3.052   8.758   1.799 -0.5235  0.5413 -0.1116
16120SOL    HW248539   3.182   8.708   1.713 -0.9478 -0.3249 -0.2545
16121SOL     OW48540   6.540   2.893   5.381 -0.1489 -0.5287  0.2702
16121SOL    HW148541   6.605   2.890   5.305  0.3341 -0.9585  0.6928
16121SOL    HW248542   6.470   2.962   5.362  0.5821  0.1326 -0.0758
16122SOL     OW48543   5.382   0.936   3.823  0.5504 -0.3990 -1.0471
16122SOL    HW148544   5.468   0.979   3.847 -0.4979  0.7708  0.8711
16122SOL    HW248545   5.319   0.940   3.901 -1.7802  0.1368 -2.8280
16123SOL     OW48546   0.229   3.237   6.496  0.2159  0.2715  0.4122
16123SOL    HW148547   0.315   3.252   6.546 -0.4205 -0.1243  1.6789
16123SOL    HW248548   0.201   3.141   6.506  0.3682  0.0360 -1.2282
16124SOL     OW48549   7.657   3.428   7.095  0.5391 -0.1851 -0.2805
16124SOL    HW148550   7.751   3.428   7.130  0.4742 -1.0995 -0.0799
16124SOL    HW248551   7.658   3.442   6.996  0.7502  1.9898 -0.0296
16125SOL     OW48552   1.833   1.671   4.635 -0.1952 -0.0971  0.1100
16125SOL    HW148553   1.915   1.710   4.678 -1.2136 -0.3484  2.4373
16125SOL    HW248554   1.859   1.627   4.549  2.1048 -0.0869  0.7243
16126SOL     OW48555   3.707   3.525   4.955 -0.3913  0.2612  0.5977
16126SOL    HW148556   3.614   3.507   4.921 -1.5596  1.2451  3.0105
16126SOL    HW248557   3.750   3.594   4.898 -1.1204 -0.1911 -0.5542
16127SOL     OW48558   6.593   5.580   0.769  0.2787  0.3307 -0.0686
16127SOL    HW148559   6.554   5.671   0.782 -0.3754  0.4166 -2.1329
16127SOL    HW248560   6.529   5.524   0.715  1.7913 -0.4607 -1.1046
16128SOL     OW48561   5.962   8.617   3.710 -0.1419 -0.1352 -0.6587
16128SOL    HW148562   6.027   8.684   3.744 -0.3556 -1.0504  1.7407
16128SOL    HW248563   6.010   8.531   3.690 -0.1435  0.1609 -1.9871
16129SOL     OW48564   6.489   5.448   0.299  0.2266  0.4420  0.1578
16129SOL    HW148565   6.561   5.416   0.238  0.3879  1.5052 -0.2335
16129SOL    HW248566   6.481   5.547   0.292 -0.8254  0.4106  0.6962
16130SOL     OW48567   1.677   1.346   3.129  0.3424  0.2634  0.3474
16130SOL    HW148568   1.604   1.407   3.161 -1.3585 -2.1384  1.4197
16130SOL    HW248569   1.742   1.331   3.203  1.3801  1.5657 -0.2673
16131SOL     OW48570   2.018   1.904   8.363  0.1315 -0.1864 -0.1882
16131SOL    HW148571   1.934   1.956   8.346  1.1331  1.4549 -0.2918
16131SOL    HW248572   2.012   1.859   8.453 -0.2633  1.1392  0.4653
16132SOL     OW48573   6.533   3.967   8.008  0.0270 -0.2000  0.5551
16132SOL    HW148574   6.458   3.906   7.982  0.2173  0.2848 -1.2156
16132SOL    HW248575   6.616   3.941   7.959 -0.1940  2.2109 -1.2667
16133SOL     OW48576   3.125   8.785   2.210  0.0755 -0.3993 -0.1306
16133SOL    HW148577   3.066   8.722   2.260 -0.0442  0.7041  1.1722
16133SOL    HW248578   3.201   8.734   2.170 -0.6296 -1.5270 -0.0877
16134SOL     OW48579   3.182   0.477   6.535  0.2075  0.4174 -0.3581
16134SOL    HW148580   3.106   0.529   6.497 -1.1467  0.5496  2.2730
16134SOL    HW248581   3.246   0.540   6.581  0.7302  0.1099 -0.6530
16135SOL     OW48582   5.573   8.267   2.586 -0.1309 -0.1133  0.0908
16135SOL    HW148583   5.510   8.203   2.544  0.3041 -0.5361  0.0741
16135SOL    HW248584   5.522   8.333   2.642 -0.5297 -0.8829  0.6528
16136SOL     OW48585   8.013   6.454   8.437 -0.0448  0.0980 -0.2073
16136SOL    HW148586   7.942   6.398   8.393  0.3301 -1.0590  0.6000
16136SOL    HW248587   7.991   6.464   8.534  0.5752  0.2446 -0.0786
16137SOL     OW48588   0.709   2.221   2.744  0.0512 -0.3683 -0.4255
16137SOL    HW148589   0.806   2.245   2.746 -0.2035  0.8590 -1.2940
16137SOL    HW248590   0.664   2.258   2.825  0.3515 -1.2364  0.1545
16138SOL     OW48591   4.927   3.637   3.491  0.0344  0.4205  0.3118
16138SOL    HW148592   4.859   3.700   3.454  0.9365  1.1306 -0.1911
16138SOL    HW248593   5.006   3.634   3.429  0.5185 -0.2764  0.9499
16139SOL     OW48594   7.808   6.430   1.703  0.3086 -0.3414  0.7204
16139SOL    HW148595   7.883   6.450   1.766 -0.3304  0.9914  1.1122
16139SOL    HW248596   7.827   6.472   1.614  0.2221 -0.3579  0.6940
16140SOL     OW48597   2.354   1.928   3.069 -0.4423 -0.0707 -0.5524
16140SOL    HW148598   2.281   1.993   3.047  0.1890  0.8081 -0.1251
16140SOL    HW248599   2.431   1.941   3.007  0.7937  1.5039  1.1870
16141SOL     OW48600   3.784   3.825   2.882  0.5791 -0.0911  0.4187
16141SOL    HW148601   3.877   3.824   2.920  0.6794 -0.3817  0.1675
16141SOL    HW248602   3.775   3.901   2.817  1.1165 -0.9638 -0.7166
16142SOL     OW48603   1.580   1.165   2.918 -0.2500  0.2876  0.1407
16142SOL    HW148604   1.622   1.208   2.999  0.3637 -0.3847  0.1922
16142SOL    HW248605   1.489   1.203   2.904  0.4197  1.9048 -0.0616
16143SOL     OW48606   1.520   3.367   2.617 -0.5718 -0.0596  0.3145
16143SOL    HW148607   1.550   3.427   2.691  1.5676  0.2813 -0.7680
16143SOL    HW248608   1.542   3.408   2.529 -3.4092 -0.2863 -0.5916
16144SOL     OW48609   4.164   3.286   4.551 -0.0089  0.3591  0.0391
16144SOL    HW148610   4.106   3.225   4.605 -1.9782  2.0674 -0.0392
16144SOL    HW248611   4.169   3.376   4.594  1.5117  0.6636 -0.6815
16145SOL     OW48612   0.671   0.896   0.876 -0.0289 -0.0907 -0.4647
16145SOL    HW148613   0.742   0.837   0.838  1.8897  1.3112  0.7086
16145SOL    HW248614   0.658   0.874   0.973 -1.4808 -0.5581 -0.7491
16146SOL     OW48615   0.730   3.600   4.904  0.1735  0.2126  0.4161
16146SOL    HW148616   0.657   3.535   4.886  1.7284 -1.7970  1.0506
16146SOL    HW248617   0.817   3.561   4.877  1.1811  2.0302  0.8873
16147SOL     OW48618   2.317   3.286   6.794 -0.1077 -0.0961  0.3845
16147SOL    HW148619   2.217   3.284   6.786 -0.1603 -1.2967  0.9917
16147SOL    HW248620   2.344   3.358   6.859 -0.6781 -0.5917  1.1950
16148SOL     OW48621   1.181   6.257   6.426 -0.4591  0.3774  0.2716
16148SOL    HW148622   1.278   6.279   6.419 -0.8904  1.8429 -2.8007
16148SOL    HW248623   1.167   6.160   6.410  0.4951  0.1394  0.8348
16149SOL     OW48624   7.196   0.261   3.454  0.1394 -0.3242 -0.1955
16149SOL    HW148625   7.190   0.244   3.553 -0.2915  0.2218 -0.1211
16149SOL    HW248626   7.116   0.314   3.425 -0.5272 -1.7360 -1.1038
16150SOL     OW48627   0.898   6.797   1.785 -0.1998 -0.2678 -0.3751
16150SOL    HW148628   0.930   6.703   1.801 -2.4061 -1.1065 -0.4734
16150SOL    HW248629   0.852   6.830   1.867  0.9412  0.9423 -0.1895
16151SOL     OW48630   8.452   6.033   1.264 -0.4708 -0.7145 -0.3751
16151SOL    HW148631   8.537   6.052   1.216 -0.2322 -3.4453 -1.2535
16151SOL    HW248632   8.457   5.941   1.305 -1.8844  0.2524  2.2101
16152SOL     OW48633   1.525   6.431   2.167 -0.2389 -0.1028 -0.0677
16152SOL    HW148634   1.601   6.438   2.232 -0.6367 -0.0235  0.3921
16152SOL    HW248635   1.561   6.437   2.074  0.2487  0.7036  0.1581
16153SOL     OW48636   2.216   5.071   8.416  0.2716  0.3542 -0.3663
16153SOL    HW148637   2.288   5.082   8.485  0.1452 -0.7513 -0.0443
16153SOL    HW248638   2.128   5.100   8.455 -0.0259 -1.4411  0.4134
16154SOL     OW48639   2.998   4.336   5.001 -0.6241 -0.0598 -0.1686
16154SOL    HW148640   3.083   4.290   4.976  0.6072  0.9855  1.8226
16154SOL    HW248641   2.931   4.268   5.032 -0.4901 -0.8727 -1.5739
16155SOL     OW48642   4.937   4.885   4.538 -0.0557 -0.1222  0.0056
16155SOL    HW148643   4.976   4.915   4.450  0.6481 -1.8012 -0.3021
16155SOL    HW248644   4.864   4.948   4.565 -0.3746  0.3723 -1.8368
16156SOL     OW48645   3.945   4.957   4.057 -0.2315  0.8853 -0.3466
16156SOL    HW148646   3.849   4.932   4.045  0.0356 -0.4686  0.2224
16156SOL    HW248647   3.972   5.021   3.985 -1.8007  2.0153  0.0160
16157SOL     OW48648   0.545   3.935   2.515 -0.0892 -0.7549 -0.1802
16157SOL    HW148649   0.590   3.985   2.589  1.6090  0.4536 -1.9242
16157SOL    HW248650   0.598   3.853   2.493 -0.3471 -0.8828 -0.3381
16158SOL     OW48651   3.300   5.962   1.759  0.1508 -0.1388 -0.7422
16158SOL    HW148652   3.207   5.952   1.723  0.0823 -0.3478 -0.5062
16158SOL    HW248653   3.307   5.918   1.848  0.4876 -0.1623 -0.7770
16159SOL     OW48654   2.948   1.588   4.510 -0.2812  0.3014  0.0367
16159SOL    HW148655   3.001   1.673   4.513  1.2371 -0.6443  0.9406
16159SOL    HW248656   2.874   1.598   4.443  0.6369  1.8755 -0.8082
16160SOL     OW48657   4.207   2.301   1.933 -0.2325  0.1451  0.5826
16160SOL    HW148658   4.269   2.290   1.855  0.1622  0.2804  0.8762
16160SOL    HW248659   4.249   2.262   2.015 -1.2129 -1.2591  0.4675
16161SOL     OW48660   1.991   4.654   8.064  0.0917 -0.2235 -0.1601
16161SOL    HW148661   1.964   4.726   8.000 -1.1023  0.1077  0.6637
16161SOL    HW248662   2.004   4.568   8.015 -0.6082  0.0636 -0.8733
16162SOL     OW48663   4.209   6.755   1.638 -0.8475  0.1321 -0.8938
16162SOL    HW148664   4.119   6.793   1.618 -0.1972  1.7833 -0.8520
16162SOL    HW248665   4.273   6.781   1.565 -0.1632 -0.1310 -0.4030
16163SOL     OW48666   6.289   5.861   7.227  0.6961 -0.1229 -0.1856
16163SOL    HW148667   6.228   5.881   7.304  0.1877  0.2037 -0.6655
16163SOL    HW248668   6.356   5.793   7.255 -0.0395 -0.6745  0.2782
16164SOL     OW48669   2.350   4.380   7.996  0.3135 -0.0511 -0.1415
16164SOL    HW148670   2.410   4.306   8.027  0.4805 -0.3482 -1.1360
16164SOL    HW248671   2.337   4.446   8.070  3.2866  0.9584 -0.3680
16165SOL     OW48672   3.682   6.228   4.558  0.0489 -0.7192 -0.1654
16165SOL    HW148673   3.776   6.246   4.587  0.2800  0.4090 -1.4947
16165SOL    HW248674   3.620   6.239   4.636  0.6647  1.9027  0.0569
16166SOL     OW48675   5.070   0.088   8.754  0.0142  0.4630  0.6336
16166SOL    HW148676   4.977   0.065   8.784  1.1581 -3.1831  1.9329
16166SOL    HW248677   5.089   0.041   8.667  0.8522  0.6580  0.7052
16167SOL     OW48678   2.760   3.436   0.683  0.2189 -0.7497  0.6255
16167SOL    HW148679   2.810   3.393   0.608  0.8987  0.3750  0.4148
16167SOL    HW248680   2.733   3.529   0.657 -0.3157 -0.6625  1.4474
16168SOL     OW48681   7.432   5.158   2.770  0.0533  0.4496  0.6169
16168SOL    HW148682   7.513   5.127   2.820  1.1882  0.3388 -1.1992
16168SOL    HW248683   7.403   5.086   2.706 -0.5825  1.0453  0.2254
16169SOL     OW48684   3.478   7.365   0.636  0.0765 -0.2149  0.5151
16169SOL    HW148685   3.536   7.300   0.587 -0.5487 -0.1266 -0.3726
16169SOL    HW248686   3.382   7.340   0.624 -0.0888 -0.2940  1.8736
16170SOL     OW48687   7.988   6.567   6.085 -0.0317  0.1061  0.0704
16170SOL    HW148688   8.018   6.580   5.990  0.8380 -0.1246  0.3029
16170SOL    HW248689   7.937   6.481   6.092  1.2004 -0.6476  0.0879
16171SOL     OW48690   6.567   6.208   8.210  0.0115 -0.9028 -0.0426
16171SOL    HW148691   6.565   6.130   8.147  1.7472  0.0584 -1.3639
16171SOL    HW248692   6.644   6.268   8.187 -0.1095  0.2032  2.1721
16172SOL     OW48693   6.332   8.127   5.048  0.1112 -0.4141  0.3183
16172SOL    HW148694   6.255   8.189   5.036  0.6090 -0.0030 -0.8414
16172SOL    HW248695   6.298   8.032   5.047 -0.6524 -0.1942  2.1598
16173SOL     OW48696   7.486   6.639   1.269 -0.3314 -0.2156 -0.2215
16173SOL    HW148697   7.431   6.699   1.210 -0.5764 -0.4155 -0.1985
16173SOL    HW248698   7.425   6.584   1.327 -0.0943  0.0106  0.2519
16174SOL     OW48699   1.717   4.688   6.988 -0.0392 -0.7570 -0.6052
16174SOL    HW148700   1.765   4.670   7.074  2.5229 -2.0463 -2.1620
16174SOL    HW248701   1.701   4.601   6.940 -1.3372 -0.0664 -1.4830
16175SOL     OW48702   0.398   2.256   1.907  1.1658 -0.6128 -0.5766
16175SOL    HW148703   0.361   2.220   1.993 -0.0989  0.7448 -0.5248
16175SOL    HW248704   0.474   2.198   1.877  2.0072 -0.8055  1.7388
16176SOL     OW48705   7.159   3.233   5.660 -0.7776  0.2999 -0.5297
16176SOL    HW148706   7.074   3.286   5.657 -1.3223 -0.5562 -0.5428
16176SOL    HW248707   7.150   3.152   5.602  0.0555  0.2075 -0.5399
16177SOL     OW48708   3.898   1.410   7.895  0.0104 -0.2813  0.4795
16177SOL    HW148709   3.863   1.483   7.836  2.2700  0.4957 -0.0072
16177SOL    HW248710   3.906   1.443   7.989  0.5625 -0.0626  0.3563
16178SOL     OW48711   4.364   8.748   5.564 -0.5148  0.0959  0.1112
16178SOL    HW148712   4.281   8.728   5.617 -1.6419  1.3963 -1.0870
16178SOL    HW248713   4.369   8.846   5.545  1.8192  0.1750  0.9409
16179SOL     OW48714   3.015   2.817   8.853  0.3688  0.4539 -0.2952
16179SOL    HW148715   2.933   2.776   8.814  0.1341  0.9763 -0.3491
16179SOL    HW248716   3.033   2.905   8.809  0.7772  0.4907 -0.0614
16180SOL     OW48717   8.696   3.184   4.782 -0.3037  0.0654  0.3318
16180SOL    HW148718   8.678   3.085   4.776  0.1785 -0.0790  1.2203
16180SOL    HW248719   8.697   3.222   4.689  0.6127 -0.9574 -0.1023
16181SOL     OW48720   2.068   5.913   5.611  0.0754  0.0532  0.6021
16181SOL    HW148721   2.150   5.930   5.557  1.4312 -0.6027  2.3520
16181SOL    HW248722   2.067   5.972   5.692 -0.6415 -0.6465  1.1303
16182SOL     OW48723   6.328   2.107   3.639  0.0683  0.6795  0.3605
16182SOL    HW148724   6.403   2.054   3.680 -0.7240 -0.1299  0.7918
16182SOL    HW248725   6.321   2.085   3.541  0.8580  1.3228  0.1463
16183SOL     OW48726   1.408   1.978   2.630  0.2853 -0.3570  0.4716
16183SOL    HW148727   1.499   1.999   2.667  0.5587  2.6394 -1.5683
16183SOL    HW248728   1.412   1.977   2.530 -1.7213 -1.4217  0.3548
16184SOL     OW48729   5.438   2.492   6.085 -0.4327  0.6375  0.2826
16184SOL    HW148730   5.504   2.565   6.098 -0.4139  0.2838  2.4920
16184SOL    HW248731   5.390   2.474   6.170 -1.5058 -0.9247 -0.5922
16185SOL     OW48732   3.423   3.745   5.740 -1.0336 -0.0353  0.6397
16185SOL    HW148733   3.425   3.664   5.681  0.9376  1.0666 -0.9428
16185SOL    HW248734   3.477   3.727   5.823 -0.4305 -0.3087  0.1995
16186SOL     OW48735   1.627   8.355   1.132 -0.2233  0.3064 -0.1093
16186SOL    HW148736   1.531   8.383   1.140 -0.2084  0.0176  1.4363
16186SOL    HW248737   1.686   8.434   1.145 -0.2363  0.1723  0.8348
16187SOL     OW48738   6.399   3.585   1.834 -0.7417  0.1202 -0.2216
16187SOL    HW148739   6.494   3.615   1.844 -0.5380 -0.7540  0.5914
16187SOL    HW248740   6.374   3.584   1.737  0.4948 -0.8741 -0.5606
16188SOL     OW48741   0.957   2.650   4.312  0.5143 -0.6737  0.0225
16188SOL    HW148742   0.999   2.730   4.354  1.0423 -2.0648  2.3665
16188SOL    HW248743   0.857   2.655   4.323  0.6345 -1.0360  1.6827
16189SOL     OW48744   5.078   3.620   4.720  0.0391 -0.2053 -0.5513
16189SOL    HW148745   5.094   3.634   4.622 -1.7496  0.1281 -0.8399
16189SOL    HW248746   5.011   3.546   4.732 -1.2527  1.0360  0.2839
16190SOL     OW48747   4.250   5.362   4.030  0.1729  0.4196  0.2871
16190SOL    HW148748   4.212   5.276   4.065 -0.6788  1.3960  1.9230
16190SOL    HW248749   4.320   5.395   4.093  0.1577  1.1574 -0.0750
16191SOL     OW48750   3.934   1.344   3.347 -0.4184  0.7096  0.2719
16191SOL    HW148751   3.855   1.295   3.385  0.6189 -1.2783 -0.0336
16191SOL    HW248752   3.980   1.286   3.280  1.8619  1.4613  1.1197
16192SOL     OW48753   7.203   5.619   7.743  0.0264  0.0935 -0.4552
16192SOL    HW148754   7.228   5.703   7.791  0.4694 -0.5600  0.4823
16192SOL    HW248755   7.265   5.545   7.770 -0.6448 -0.6517 -0.9029
16193SOL     OW48756   1.934   5.965   4.110  0.4297 -0.2824  0.5866
16193SOL    HW148757   1.950   5.886   4.171  0.6991 -1.0016 -0.3892
16193SOL    HW248758   1.855   5.947   4.052 -0.0383  0.5514  0.9489
16194SOL     OW48759   5.800   2.966   6.946 -0.0007  0.1088  0.1770
16194SOL    HW148760   5.770   2.871   6.952 -2.9908  0.9124 -0.6360
16194SOL    HW248761   5.816   3.002   7.038  0.4204 -0.9441  0.5233
16195SOL     OW48762   5.617   2.520   5.435  0.3518 -0.5883 -1.0034
16195SOL    HW148763   5.548   2.521   5.363  0.2112 -0.4873 -0.8674
16195SOL    HW248764   5.638   2.614   5.462 -1.5587 -0.6709  0.9651
16196SOL     OW48765   1.596   8.840   8.346  0.4924 -0.4137 -0.1707
16196SOL    HW148766   1.549   8.760   8.308 -0.1864 -0.0428 -0.1289
16196SOL    HW248767   1.695   8.831   8.332  0.3823 -1.0412 -0.5678
16197SOL     OW48768   0.860   3.996   1.467  0.3563 -0.1967  0.2561
16197SOL    HW148769   0.819   4.071   1.518 -1.9392 -1.1284 -0.1090
16197SOL    HW248770   0.916   3.940   1.529 -1.5556 -0.7308  1.5888
16198SOL     OW48771   0.289   8.358   7.046  0.1010  0.1391  0.5334
16198SOL    HW148772   0.203   8.316   7.019 -0.1950  0.8156  0.4043
16198SOL    HW248773   0.280   8.397   7.138  0.5042 -0.4425  0.8274
16199SOL     OW48774   8.751   4.327   0.780 -0.3855  0.3032  0.0956
16199SOL    HW148775   8.775   4.343   0.684  2.5811 -0.6511  0.5736
16199SOL    HW248776   8.834   4.328   0.836 -1.6375 -2.0784  2.2231
16200SOL     OW48777   4.529   3.472   3.536  0.3627 -0.3535 -0.4296
16200SOL    HW148778   4.527   3.520   3.448 -0.1174 -3.3647 -2.1861
16200SOL    HW248779   4.437   3.472   3.576  0.4926  0.6402 -0.0868
16201SOL     OW48780   6.767   1.035   8.086 -0.3017 -0.1659  0.0884
16201SOL    HW148781   6.720   1.018   8.172  0.4107  1.0060  0.7226
16201SOL    HW248782   6.848   0.976   8.079 -0.7426 -0.7602 -0.1131
16202SOL     OW48783   7.239   7.681   2.013  0.5397  0.0955  0.0196
16202SOL    HW148784   7.338   7.676   2.022  0.5131 -0.5148  0.0486
16202SOL    HW248785   7.209   7.612   1.947  0.1259  0.1941  0.1044
16203SOL     OW48786   3.457   1.897   3.658 -0.1616 -0.0083  0.0592
16203SOL    HW148787   3.393   1.912   3.583 -0.5201  1.6175  0.6420
16203SOL    HW248788   3.546   1.934   3.633 -0.4250  1.0455  0.6099
16204SOL     OW48789   2.928   7.288   3.678 -0.4399 -0.3177  0.0018
16204SOL    HW148790   2.852   7.342   3.643 -0.0100  0.5500  0.3734
16204SOL    HW248791   2.959   7.224   3.607 -0.7281  0.1728 -0.5733
16205SOL     OW48792   8.580   6.542   2.544  0.3246 -0.2416  0.5132
16205SOL    HW148793   8.656   6.559   2.607  0.5718  0.2246  0.1038
16205SOL    HW248794   8.536   6.629   2.522  1.0876 -0.1940 -0.9956
16206SOL     OW48795   5.544   1.156   4.530  0.0103 -0.2607 -0.2439
16206SOL    HW148796   5.444   1.157   4.530 -0.0035 -0.5655  0.7340
16206SOL    HW248797   5.576   1.063   4.549  0.4380  0.3028  2.1861
16207SOL     OW48798   0.414   1.430   1.601 -0.3028 -0.2637 -0.4765
16207SOL    HW148799   0.342   1.385   1.548  0.9581 -2.4867 -0.4121
16207SOL    HW248800   0.388   1.435   1.697 -1.4411  1.3422 -0.8270
16208SOL     OW48801   1.355   5.404   0.512 -0.4010  0.2941 -0.5634
16208SOL    HW148802   1.452   5.410   0.537 -0.6891 -3.2287  1.9965
16208SOL    HW248803   1.312   5.493   0.528  1.7757  1.1355  1.2365
16209SOL     OW48804   0.850   2.635   8.459 -0.0515  0.2656  0.0576
16209SOL    HW148805   0.819   2.606   8.368  0.1526 -1.8983  0.6198
16209SOL    HW248806   0.796   2.588   8.529 -0.2016  1.8962  1.0845
16210SOL     OW48807   0.425   1.051   2.127 -0.1829 -0.3306 -0.2023
16210SOL    HW148808   0.403   1.128   2.185  0.5932 -0.2034 -0.0610
16210SOL    HW248809   0.524   1.037   2.126  0.0307  0.7857 -2.8920
16211SOL     OW48810   2.965   4.560   8.771  0.4234 -0.7062 -0.3407
16211SOL    HW148811   2.870   4.553   8.741  0.6025 -0.3219 -1.0029
16211SOL    HW248812   3.024   4.583   8.694  1.2330 -2.1584 -0.1995
16212SOL     OW48813   5.085   7.430   6.219  0.1196 -0.3628  0.2559
16212SOL    HW148814   5.039   7.408   6.133  0.2921 -2.3214  0.6168
16212SOL    HW248815   5.155   7.361   6.238  0.2398  0.1564  1.8488
16213SOL     OW48816   0.921   8.274   6.360 -0.2935  0.9121 -0.2242
16213SOL    HW148817   0.996   8.335   6.337  1.7581 -1.6067 -0.6759
16213SOL    HW248818   0.889   8.228   6.277 -1.2390  0.7588  0.2087
16214SOL     OW48819   2.257   2.738   3.165 -0.0037  0.0053 -0.3810
16214SOL    HW148820   2.272   2.815   3.228  3.3480 -0.4710 -0.4397
16214SOL    HW248821   2.267   2.652   3.215 -1.6583 -0.4253 -0.7415
16215SOL     OW48822   4.097   3.116   6.236  0.2788 -0.0906 -0.0850
16215SOL    HW148823   4.003   3.145   6.217  0.6046  1.1564  0.1141
16215SOL    HW248824   4.107   3.018   6.215 -1.5075 -0.6789  1.5329
16216SOL     OW48825   8.569   7.574   2.228 -0.0255  0.4942 -0.0053
16216SOL    HW148826   8.626   7.570   2.310  0.4811 -0.3664 -0.3910
16216SOL    HW248827   8.569   7.668   2.193  0.5624  0.6616  0.4207
16217SOL     OW48828   7.434   3.062   3.821 -0.1056  0.1346 -0.0659
16217SOL    HW148829   7.422   3.160   3.839 -2.1416 -0.2260  0.8331
16217SOL    HW248830   7.495   3.023   3.890 -0.0876  0.5824  0.1772
16218SOL     OW48831   0.539   5.152   0.237  0.1885  0.1144  0.5267
16218SOL    HW148832   0.578   5.105   0.316  0.4941  0.3997  0.5449
16218SOL    HW248833   0.475   5.223   0.268 -1.4672 -1.2862  0.4843
16219SOL     OW48834   3.759   0.447   4.005  0.4940  0.2299  0.0927
16219SOL    HW148835   3.732   0.355   3.975 -0.5000  1.0596 -1.7239
16219SOL    HW248836   3.844   0.474   3.960  0.2924  0.5457 -0.1051
16220SOL     OW48837   2.322   0.128   7.622 -0.5158 -0.4279 -0.2806
16220SOL    HW148838   2.411   0.099   7.586 -0.5437  0.1517 -0.8454
16220SOL    HW248839   2.279   0.052   7.671  0.4844 -0.5803  0.3896
16221SOL     OW48840   0.813   0.450   7.809 -0.0818 -0.5840 -0.3141
16221SOL    HW148841   0.789   0.480   7.901  1.0115  1.4236 -0.6377
16221SOL    HW248842   0.739   0.393   7.772 -1.7753  0.8372  0.7672
16222SOL     OW48843   1.474   3.092   4.355  0.1877  0.0073  0.2815
16222SOL    HW148844   1.561   3.126   4.391 -0.3073  2.5718 -0.7216
16222SOL    HW248845   1.405   3.092   4.428  0.5558 -0.2487  0.6347
16223SOL     OW48846   2.381   4.023   2.421  0.4533 -0.6303 -0.0933
16223SOL    HW148847   2.454   4.052   2.359  0.8367 -1.3837 -0.0186
16223SOL    HW248848   2.294   4.059   2.390  0.8838  0.4783 -0.0580
16224SOL     OW48849   7.728   7.139   1.791  1.0914  0.6537 -0.0549
16224SOL    HW148850   7.712   7.082   1.872  0.9194  2.2697  1.1252
16224SOL    HW248851   7.669   7.220   1.796  0.1723  0.2014 -2.4693
16225SOL     OW48852   2.896   0.295   3.561 -0.0632  0.1836  0.0208
16225SOL    HW148853   2.812   0.264   3.606  0.0740 -0.4273 -0.1303
16225SOL    HW248854   2.895   0.395   3.552 -0.0191  0.3433  1.5252
16226SOL     OW48855   4.387   6.285   0.141  0.3740  0.0484 -0.2435
16226SOL    HW148856   4.476   6.291   0.095 -0.6001 -0.1905 -2.2648
16226SOL    HW248857   4.351   6.377   0.156  0.6686  0.1259  0.0071
16227SOL     OW48858   8.317   5.586   2.111 -0.5006  0.1830  0.2780
16227SOL    HW148859   8.228   5.563   2.072 -0.1496 -0.3534 -0.2075
16227SOL    HW248860   8.378   5.619   2.039 -0.0675 -0.1673  0.4789
16228SOL     OW48861   5.676   4.106   4.351  0.1826  0.5685 -0.2361
16228SOL    HW148862   5.589   4.065   4.325  0.4006 -1.4042  1.7714
16228SOL    HW248863   5.665   4.204   4.365 -1.7229  0.3621 -0.0631
16229SOL     OW48864   6.822   6.410   0.342 -0.1423 -0.3150 -0.5016
16229SOL    HW148865   6.808   6.358   0.258  0.3589 -1.1440 -0.0806
16229SOL    HW248866   6.901   6.470   0.331 -0.9762  0.7197 -1.1398
16230SOL     OW48867   8.419   6.876   6.349 -0.0325 -0.2344  0.6924
16230SOL    HW148868   8.417   6.783   6.311  0.6991 -0.0610  0.2110
16230SOL    HW248869   8.372   6.939   6.287 -0.2740 -0.2341  0.8759
16231SOL     OW48870   0.743   1.797   7.946  0.4652  0.0957 -0.0050
16231SOL    HW148871   0.828   1.808   7.998  1.6086  2.8238 -2.2306
16231SOL    HW248872   0.754   1.723   7.879  0.4794 -0.6086  0.7579
16232SOL     OW48873   2.063   0.205   2.426 -0.0632  0.0357  0.0358
16232SOL    HW148874   2.079   0.283   2.365 -4.0613 -0.3318 -1.7605
16232SOL    HW248875   2.096   0.121   2.382  2.7378  0.3666  1.2694
16233SOL     OW48876   0.070   4.846   1.461 -0.3465 -0.1771 -0.1966
16233SOL    HW148877   0.147   4.893   1.417 -0.2142  0.2661  0.5076
16233SOL    HW248878   0.099   4.755   1.492  1.3135  1.6143  4.2109
16234SOL     OW48879   2.846   2.284   5.905  0.0825 -0.1035  0.4148
16234SOL    HW148880   2.775   2.354   5.897  0.4551  0.2606  0.2442
16234SOL    HW248881   2.830   2.229   5.987 -0.4681 -0.1094  0.3094
16235SOL     OW48882   8.585   2.361   3.260  0.4839 -0.0244  0.1114
16235SOL    HW148883   8.490   2.350   3.290  0.4955  0.1867  0.2253
16235SOL    HW248884   8.626   2.440   3.305 -0.5338  2.4739 -3.0183
16236SOL     OW48885   7.985   6.265   2.541  0.5909  0.4267  0.3206
16236SOL    HW148886   7.929   6.237   2.463  2.1084 -1.2125 -0.2672
16236SOL    HW248887   7.929   6.273   2.622 -0.9043  1.4145 -0.7609
16237SOL     OW48888   0.853   0.907   2.539  0.0161 -0.0927  0.3862
16237SOL    HW148889   0.888   0.971   2.471  0.3555 -2.2334 -1.5650
16237SOL    HW248890   0.764   0.871   2.509 -0.0344 -0.7616  1.2889
16238SOL     OW48891   3.396   8.465   0.467 -0.6063  0.5036  0.6568
16238SOL    HW148892   3.405   8.544   0.406 -1.5236  0.9967  1.1399
16238SOL    HW248893   3.487   8.429   0.487 -0.2812  0.4322 -0.8502
16239SOL     OW48894   5.255   2.024   8.749 -0.1889  0.7057  0.4306
16239SOL    HW148895   5.289   2.004   8.657  1.9657  1.3488  1.0297
16239SOL    HW248896   5.320   2.084   8.796  0.8930 -2.6474  3.7130
16240SOL     OW48897   7.042   6.615   5.522 -0.6343  0.2334  0.1293
16240SOL    HW148898   6.993   6.701   5.505  0.4658  0.9805  0.6459
16240SOL    HW248899   7.050   6.563   5.437 -2.6922 -0.1297  0.1021
16241SOL     OW48900   8.598   7.297   5.645  0.5902 -0.0816  0.2313
16241SOL    HW148901   8.619   7.223   5.708 -2.4089  0.2567  1.8005
16241SOL    HW248902   8.525   7.269   5.583  1.2855  0.6825 -0.9794
16242SOL     OW48903   7.785   3.016   8.035 -0.3090 -0.0910 -0.3613
16242SOL    HW148904   7.704   3.069   8.058  0.2382  0.6733 -0.1566
16242SOL    HW248905   7.782   2.929   8.084 -0.3764  0.4764  0.6846
16243SOL     OW48906   5.959   2.885   8.112  0.0260  0.3068 -0.9078
16243SOL    HW148907   6.008   2.947   8.172  0.4989  1.6240 -2.6017
16243SOL    HW248908   5.867   2.868   8.150  0.4633  0.7160  0.3968
16244SOL     OW48909   7.682   7.239   2.592  0.0009  0.0814  0.0590
16244SOL    HW148910   7.694   7.146   2.629  0.2510  0.2204  0.3371
16244SOL    HW248911   7.649   7.234   2.498 -0.1585 -0.2880  0.1333
16245SOL     OW48912   2.174   0.449   6.010  0.0071 -0.0166  0.6925
16245SOL    HW148913   2.142   0.360   6.041 -1.5179  0.1083 -0.3992
16245SOL    HW248914   2.177   0.450   5.910  0.1183  1.1194  0.6929
16246SOL     OW48915   6.130   3.095   8.242  0.0549  0.0742 -0.1376
16246SOL    HW148916   6.090   3.167   8.298  0.3915  0.1276  0.0324
16246SOL    HW248917   6.182   3.135   8.167  0.3710  0.0080  0.0471
16247SOL     OW48918   1.164   6.344   4.761 -0.0448  0.7001 -0.4978
16247SOL    HW148919   1.198   6.379   4.674  1.5588  1.2012  0.3005
16247SOL    HW248920   1.151   6.245   4.755 -0.1668  0.7627 -1.3615
16248SOL     OW48921   6.775   2.703   0.829 -0.0073  0.5709 -0.8095
16248SOL    HW148922   6.809   2.699   0.922 -4.0268 -1.6856  0.8461
16248SOL    HW248923   6.711   2.780   0.820 -2.2242 -1.1538 -0.5319
16249SOL     OW48924   5.579   7.321   2.655 -0.9978  0.8594  0.1977
16249SOL    HW148925   5.513   7.251   2.679 -2.2366  2.0071  0.2616
16249SOL    HW248926   5.532   7.407   2.638  0.5237  1.8508  0.7317
16250SOL     OW48927   6.068   0.989   7.895 -0.3530  0.0871 -0.2619
16250SOL    HW148928   6.071   1.019   7.991 -2.0306  2.7745 -0.9408
16250SOL    HW248929   6.141   1.034   7.844 -0.5243 -0.0007 -0.5849
16251SOL     OW48930   5.706   6.364   0.127 -0.3866 -0.3233  0.7053
16251SOL    HW148931   5.673   6.454   0.156  0.8979  0.8934 -1.3945
16251SOL    HW248932   5.722   6.364   0.028  0.3506 -2.6470  0.7605
16252SOL     OW48933   7.007   5.860   5.130 -0.0163  0.3189  0.0172
16252SOL    HW148934   7.004   5.761   5.115 -0.8509  0.4095 -0.4750
16252SOL    HW248935   7.066   5.902   5.061 -0.3489  0.2473 -0.3192
16253SOL     OW48936   5.771   6.163   5.435  0.0032  0.4414  0.2601
16253SOL    HW148937   5.703   6.236   5.425  1.0733  1.3829 -0.4479
16253SOL    HW248938   5.731   6.076   5.407 -0.4756  1.2292 -1.7056
16254SOL     OW48939   3.510   8.492   4.067  0.2612 -0.2411 -0.1232
16254SOL    HW148940   3.455   8.575   4.081  0.8311  0.2726 -0.8771
16254SOL    HW248941   3.557   8.469   4.152 -0.6802 -0.3835  0.3830
16255SOL     OW48942   1.356   6.121   3.979  0.0091 -0.1908 -0.0595
16255SOL    HW148943   1.283   6.055   3.964 -0.0712 -0.0023 -0.4965
16255SOL    HW248944   1.445   6.078   3.961 -0.1668  0.6690 -3.5148
16256SOL     OW48945   8.642   3.540   0.621  0.1630 -0.3336  0.2316
16256SOL    HW148946   8.656   3.484   0.539 -2.2412  0.5157 -0.8542
16256SOL    HW248947   8.559   3.510   0.668 -0.1485  1.1133  0.6538
16257SOL     OW48948   0.027   1.594   0.638  0.2516  0.0640  0.2258
16257SOL    HW148949   0.065   1.599   0.546  0.4291  1.5409  0.3421
16257SOL    HW248950  -0.070   1.570   0.633  0.0169  1.0880 -0.4387
16258SOL     OW48951   6.650   8.208   0.664 -0.3993 -0.0488 -0.0805
16258SOL    HW148952   6.601   8.130   0.625 -0.7267 -0.1982  0.6100
16258SOL    HW248953   6.741   8.215   0.623 -1.0934  0.3999 -1.5824
16259SOL     OW48954   7.899   8.391   2.198  0.0038  0.4308 -0.3375
16259SOL    HW148955   7.855   8.398   2.109 -0.1244 -1.1233 -0.4244
16259SOL    HW248956   7.831   8.363   2.266  0.3835  0.2539 -0.0243
16260SOL     OW48957   8.601   6.246   1.081 -0.1793 -0.8498 -0.3364
16260SOL    HW148958   8.622   6.334   1.124  0.2820 -0.7351 -0.7861
16260SOL    HW248959   8.540   6.260   1.004 -0.7867 -1.0260  0.1051
16261SOL     OW48960   1.308   5.880   4.485  0.0734 -1.1353 -0.2108
16261SOL    HW148961   1.235   5.929   4.437  0.2229 -0.0297  0.6734
16261SOL    HW248962   1.361   5.943   4.540 -0.9437 -2.5185  2.5548
16262SOL     OW48963   4.250   1.913   4.263 -0.9610 -0.1208 -0.3624
16262SOL    HW148964   4.250   1.852   4.342 -1.8992 -0.0717 -0.3089
16262SOL    HW248965   4.302   1.995   4.284 -2.8576  0.8189  0.9734
16263SOL     OW48966   6.872   7.804   6.700 -0.3303  0.2195  0.1062
16263SOL    HW148967   6.958   7.841   6.736  1.1519 -1.4603 -1.5050
16263SOL    HW248968   6.814   7.773   6.776  0.8313  0.6085  1.1861
16264SOL     OW48969   6.578   2.149   2.927 -0.2856  0.5796 -0.1504
16264SOL    HW148970   6.654   2.102   2.971  0.0799  2.2696  1.1023
16264SOL    HW248971   6.613   2.223   2.869 -0.8630 -0.4188 -1.8436
16265SOL     OW48972   8.424   5.510   1.393 -0.0039 -0.2428  0.1127
16265SOL    HW148973   8.343   5.458   1.367  1.2620 -1.5343 -1.4276
16265SOL    HW248974   8.506   5.453   1.381  1.5178  2.1854 -2.1155
16266SOL     OW48975   7.693   6.288   7.543 -0.0396 -0.2302 -0.1483
16266SOL    HW148976   7.735   6.331   7.623  0.8643 -1.2031 -0.0771
16266SOL    HW248977   7.757   6.223   7.503 -0.4182  0.3618 -1.7831
16267SOL     OW48978   1.914   8.659   7.349 -0.6088 -0.1630  0.6669
16267SOL    HW148979   2.005   8.699   7.354 -1.5110  1.8998  3.5334
16267SOL    HW248980   1.907   8.584   7.415 -0.5807 -1.4028 -0.6924
16268SOL     OW48981   3.329   4.495   6.854  0.1820 -0.2896 -0.1115
16268SOL    HW148982   3.292   4.413   6.811  0.3629 -0.1759 -0.4939
16268SOL    HW248983   3.291   4.505   6.946  1.0011 -1.4012  0.3762
16269SOL     OW48984   2.883   7.455   0.117 -0.9821  0.4995 -0.2607
16269SOL    HW148985   2.810   7.460   0.185 -1.6689  0.5154 -0.9804
16269SOL    HW248986   2.875   7.369   0.066  1.3797 -1.0083  1.6920
16270SOL     OW48987   5.607   2.889   4.609 -0.5247  0.0208 -0.3857
16270SOL    HW148988   5.619   2.806   4.664 -0.7111  1.3148  1.6980
16270SOL    HW248989   5.522   2.934   4.635 -0.4361  0.8702 -1.5075
16271SOL     OW48990   5.320   1.294   8.736 -0.1822 -0.4228  0.3355
16271SOL    HW148991   5.245   1.354   8.765 -0.2195 -0.7188  0.8680
16271SOL    HW248992   5.347   1.318   8.643 -0.4712  0.1482  0.3891
16272SOL     OW48993   0.892   8.264   0.071 -0.1794 -0.2629 -0.2492
16272SOL    HW148994   0.825   8.332   0.041 -0.0277  0.2188  0.4916
16272SOL    HW248995   0.912   8.277   0.168 -0.2726 -1.4745 -0.0546
16273SOL     OW48996   0.874   0.243   2.070  0.0011 -0.1614  0.2319
16273SOL    HW148997   0.866   0.172   2.000  0.1379  0.6858 -0.6690
16273SOL    HW248998   0.807   0.315   2.052  0.5074  0.4008  0.5718
16274SOL     OW48999   5.917   6.740   5.741  0.2601 -0.2755  0.2305
16274SOL    HW149000   5.943   6.794   5.661 -1.2635  0.7288  0.3748
16274SOL    HW249001   5.955   6.648   5.733  2.1179  0.5088 -0.4840
16275SOL     OW49002   1.838   6.268   5.682  0.0158  0.2657 -0.1566
16275SOL    HW149003   1.869   6.304   5.770  1.3006 -0.1152 -0.4288
16275SOL    HW249004   1.776   6.334   5.639 -0.8499  0.3347  1.1329
16276SOL     OW49005   2.518   2.292   2.794 -0.0423  0.4788 -0.4084
16276SOL    HW149006   2.572   2.236   2.856  1.3465  0.9433 -1.1563
16276SOL    HW249007   2.570   2.309   2.710 -1.6309  0.3754 -1.4617
16277SOL     OW49008   5.872   6.440   3.528 -0.7926  0.3831 -0.1382
16277SOL    HW149009   5.941   6.508   3.501  1.0382 -1.6058 -0.7709
16277SOL    HW249010   5.897   6.351   3.490 -1.2038 -1.4437  3.4497
16278SOL     OW49011   6.437   1.625   8.405 -0.2708 -0.0677 -0.4595
16278SOL    HW149012   6.368   1.697   8.411  1.0095  1.1349  0.5489
16278SOL    HW249013   6.479   1.612   8.495  0.5468 -1.0271 -0.9618
16279SOL     OW49014   1.060   2.580   7.759  0.5794  0.3372 -0.4781
16279SOL    HW149015   0.995   2.526   7.812 -0.8259  0.7669 -1.7142
16279SOL    HW249016   1.022   2.672   7.744  1.1444  0.3649 -1.8437
16280SOL     OW49017   0.261   0.464   1.338  0.0303 -0.3416 -0.1430
16280SOL    HW149018   0.175   0.469   1.287 -1.5041 -2.7881  1.9853
16280SOL    HW249019   0.284   0.554   1.374 -1.4956  0.4013 -0.9325
16281SOL     OW49020   1.924   2.785   5.682  0.1644 -0.0202 -0.1211
16281SOL    HW149021   2.008   2.758   5.728 -0.5797 -2.4456 -0.0837
16281SOL    HW249022   1.849   2.727   5.712 -0.6844 -0.6552 -3.1869
16282SOL     OW49023   1.426   2.774   3.308  0.3868  0.2925 -0.1749
16282SOL    HW149024   1.401   2.758   3.212 -0.8456  1.0558 -0.0025
16282SOL    HW249025   1.459   2.868   3.319 -2.1250  1.1472  0.6083
16283SOL     OW49026   3.626   4.201   5.553  0.3652  0.1204  0.0016
16283SOL    HW149027   3.723   4.222   5.552  0.2013  0.9177 -0.3563
16283SOL    HW249028   3.613   4.102   5.549  1.1587  0.0046  0.1386
16284SOL     OW49029   5.452   4.836   6.445 -0.2475 -0.2345  0.1978
16284SOL    HW149030   5.413   4.927   6.434 -0.8385 -0.2701  1.7442
16284SOL    HW249031   5.545   4.843   6.481  0.1909 -0.2218 -0.9111
16285SOL     OW49032   0.710   1.752   1.738  0.5783  0.5201 -0.2608
16285SOL    HW149033   0.786   1.803   1.779 -0.6479  2.6104 -0.4007
16285SOL    HW249034   0.664   1.811   1.671 -0.3488 -1.1677 -1.1639
16286SOL     OW49035   5.053   2.854   4.766  0.4376  0.5231  0.4061
16286SOL    HW149036   5.028   2.758   4.769 -0.6116  0.8068  2.0685
16286SOL    HW249037   4.994   2.902   4.701 -0.9228  0.5308  1.6307
16287SOL     OW49038   0.852   5.666   8.134 -0.3771  0.0344  0.5627
16287SOL    HW149039   0.908   5.741   8.097 -1.5289 -0.1076 -1.6060
16287SOL    HW249040   0.826   5.604   8.060  0.3906 -2.4669  2.2700
16288SOL     OW49041   8.613   8.342   3.822  0.3943  0.0027 -1.1124
16288SOL    HW149042   8.659   8.273   3.767 -1.8137 -2.4840 -0.0413
16288SOL    HW249043   8.669   8.365   3.902  0.9167 -0.9962 -1.1831
16289SOL     OW49044   7.489   8.771   3.174  0.0680  0.0143 -0.3976
16289SOL    HW149045   7.504   8.688   3.228  0.7460  0.0071 -0.5922
16289SOL    HW249046   7.424   8.830   3.223  0.7201  0.0375  0.4670
16290SOL     OW49047   3.965   2.584   6.247  0.3800  0.5434 -0.0809
16290SOL    HW149048   4.038   2.560   6.183 -0.4717  0.2920 -0.9848
16290SOL    HW249049   3.920   2.500   6.278  0.7541  0.6664  0.8337
16291SOL     OW49050   8.838   4.832   6.875 -0.0114  0.2605 -0.4861
16291SOL    HW149051   8.808   4.738   6.856  0.9145  0.1434 -1.4771
16291SOL    HW249052   8.910   4.857   6.811  0.6616  1.2032  0.6136
16292SOL     OW49053   7.521   3.961   4.923  0.9514  0.1977  0.8100
16292SOL    HW149054   7.456   4.035   4.905  0.4965 -0.1189  1.1583
16292SOL    HW249055   7.614   3.998   4.922  0.8434  0.5113 -0.5035
16293SOL     OW49056   5.186   3.689   5.664  0.4392 -0.1206 -0.2210
16293SOL    HW149057   5.107   3.744   5.636  0.2556 -0.8015 -1.0875
16293SOL    HW249058   5.193   3.608   5.605  0.7772 -0.9703  0.9456
16294SOL     OW49059   3.724   7.937   8.235  0.0473  0.3940  0.5834
16294SOL    HW149060   3.656   7.945   8.308 -0.5480  3.1518 -0.1438
16294SOL    HW249061   3.693   7.989   8.155  2.7775  1.3466  0.0535
16295SOL     OW49062   1.487   3.233   7.253 -0.1134  0.0639 -0.4518
16295SOL    HW149063   1.482   3.313   7.313 -0.6461  1.2429 -2.0156
16295SOL    HW249064   1.584   3.213   7.234  0.0661 -0.4550  0.9516
16296SOL     OW49065   3.052   0.863   0.576 -0.7530 -0.8778  0.4208
16296SOL    HW149066   3.080   0.783   0.629 -1.2014 -0.6551  1.0036
16296SOL    HW249067   3.015   0.833   0.488 -0.3095 -1.2697  0.3657
16297SOL     OW49068   2.958   7.188   5.230  0.0020  0.6458 -0.1038
16297SOL    HW149069   2.969   7.201   5.132 -2.8895  0.2147 -0.5569
16297SOL    HW249070   2.927   7.094   5.248 -0.5485  1.0449  1.1263
16298SOL     OW49071   2.180   3.655   0.556 -0.0837 -0.6138  0.3120
16298SOL    HW149072   2.120   3.633   0.633  0.4957 -3.0329  0.1434
16298SOL    HW249073   2.141   3.617   0.472  0.3002  0.2605 -0.2776
16299SOL     OW49074   4.821   3.742   3.983  0.1476  0.1313  0.4355
16299SOL    HW149075   4.772   3.699   3.907  0.9422  1.3862 -0.8383
16299SOL    HW249076   4.909   3.695   3.996  0.4535  0.5460 -0.1046
16300SOL     OW49077   8.495   1.208   0.595 -0.1813 -0.0677 -0.1561
16300SOL    HW149078   8.445   1.129   0.558 -1.7949 -0.2265  2.1313
16300SOL    HW249079   8.572   1.176   0.650  0.7762  0.0832 -1.3776
16301SOL     OW49080   4.826   3.551   5.908 -0.3884 -0.0442 -0.3357
16301SOL    HW149081   4.817   3.509   5.999 -2.2143 -0.9335 -0.8803
16301SOL    HW249082   4.768   3.632   5.903 -2.0380 -1.2286 -1.3556
16302SOL     OW49083   4.360   3.402   2.416  0.1973 -0.1734 -0.1804
16302SOL    HW149084   4.367   3.322   2.356 -1.0617 -0.5155  0.0957
16302SOL    HW249085   4.352   3.372   2.511 -1.3299  0.1986 -0.1544
16303SOL     OW49086   5.817   7.640   2.203  0.2598  0.0648 -0.2210
16303SOL    HW149087   5.805   7.711   2.135  0.1692  0.4985  0.2440
16303SOL    HW249088   5.896   7.661   2.260  0.4164 -0.3635 -0.2751
16304SOL     OW49089   3.403   7.319   0.905  0.0466  0.5463  0.7710
16304SOL    HW149090   3.349   7.236   0.887  0.5627 -0.2456  2.7017
16304SOL    HW249091   3.453   7.344   0.822 -1.2418 -0.2139 -0.2759
16305SOL     OW49092   3.759   4.692   6.848  0.9607 -0.0701 -0.3437
16305SOL    HW149093   3.690   4.620   6.839  1.7724 -0.9021 -0.0809
16305SOL    HW249094   3.715   4.776   6.878 -0.0651 -0.3384 -1.0385
16306SOL     OW49095   0.733   0.619   8.054  0.0311  0.1254  0.3585
16306SOL    HW149096   0.743   0.647   8.150  0.6879 -1.9140  0.9282
16306SOL    HW249097   0.741   0.699   7.995 -0.1548  1.3947  1.9856
16307SOL     OW49098   1.998   8.608   2.668 -0.0864  0.5979  0.2787
16307SOL    HW149099   2.058   8.575   2.595 -0.6248 -0.2838  0.2289
16307SOL    HW249100   1.934   8.536   2.695 -0.5133  1.2197  0.9786
16308SOL     OW49101   6.383   5.253   4.183 -0.5391  0.7152 -0.4035
16308SOL    HW149102   6.300   5.203   4.156 -0.3939  1.3553 -2.1623
16308SOL    HW249103   6.389   5.338   4.132  0.4207  1.4378  0.8571
16309SOL     OW49104   3.117   6.958   1.489 -0.0629 -0.7025 -0.1754
16309SOL    HW149105   3.178   6.979   1.413  0.2240 -0.9203 -0.0081
16309SOL    HW249106   3.170   6.949   1.574 -0.4705  0.3507  0.2105
16310SOL     OW49107   6.765   1.115   0.185  0.4510 -0.3989 -0.7090
16310SOL    HW149108   6.832   1.080   0.250  1.8759 -0.1321 -1.9641
16310SOL    HW249109   6.739   1.209   0.210  1.1709 -0.2116 -0.6317
16311SOL     OW49110   8.528   6.411   6.205  0.3474  0.1506  0.5197
16311SOL    HW149111   8.443   6.445   6.165  1.0181  1.1267 -0.1177
16311SOL    HW249112   8.531   6.311   6.194 -0.5574  0.1392  0.2451
16312SOL     OW49113   4.068   6.884   6.027 -0.0551  0.0737 -0.5051
16312SOL    HW149114   4.149   6.935   6.056 -0.5762  0.6232  0.0213
16312SOL    HW249115   4.088   6.786   6.028  0.1381  0.0943  1.2021
16313SOL     OW49116   3.868   6.979   2.605  0.2933 -0.0042 -0.1725
16313SOL    HW149117   3.853   7.056   2.543  0.7196 -0.4785 -0.8824
16313SOL    HW249118   3.940   6.920   2.568  0.9126 -0.0290  1.0362
16314SOL     OW49119   4.135   4.163   3.810  0.1210  0.3167  0.0267
16314SOL    HW149120   4.038   4.142   3.824  0.2066  0.5969  1.0652
16314SOL    HW249121   4.186   4.078   3.797 -0.0566  0.0784  0.8512
16315SOL     OW49122   5.045   1.621   7.622  0.4714 -0.5167  0.0225
16315SOL    HW149123   5.120   1.595   7.682  1.5480  2.1697 -0.0335
16315SOL    HW249124   4.959   1.621   7.674  1.1975  0.5454  1.2935
16316SOL     OW49125   0.026   4.807   3.859 -0.3138  0.0955  0.3052
16316SOL    HW149126   0.075   4.722   3.839 -1.3296 -0.4194 -0.0566
16316SOL    HW249127   0.083   4.885   3.833  0.0505 -0.4990 -0.7363
16317SOL     OW49128   0.837   4.344   5.497 -0.4858 -0.0110  0.3609
16317SOL    HW149129   0.783   4.410   5.549 -0.6422 -0.4823  0.8086
16317SOL    HW249130   0.830   4.364   5.399 -1.9650 -0.4112  0.3579
16318SOL     OW49131   6.947   7.044   8.532  0.6661 -0.2985 -0.5567
16318SOL    HW149132   6.862   6.998   8.506 -1.2486  1.4960  1.9759
16318SOL    HW249133   6.981   7.005   8.617  1.2473  0.3351 -0.4949
16319SOL     OW49134   7.115   0.842   1.651 -0.3696  0.5300 -0.5466
16319SOL    HW149135   7.168   0.774   1.600 -0.2329  1.1598 -1.2611
16319SOL    HW249136   7.109   0.814   1.747  1.2035  0.4215 -0.4597
16320SOL     OW49137   6.823   7.545   3.092  0.0844  0.2543 -0.2316
16320SOL    HW149138   6.771   7.502   3.018 -1.6859  0.4253  0.8438
16320SOL    HW249139   6.784   7.517   3.180  1.7882  0.4845  0.6295
16321SOL     OW49140   0.264   8.528   5.783 -0.3128 -0.3143  0.5621
16321SOL    HW149141   0.231   8.606   5.836 -0.0119 -0.5297  1.0856
16321SOL    HW249142   0.224   8.444   5.820  0.2612 -0.5086  0.7578
16322SOL     OW49143   0.232   3.860   6.757 -0.6178  0.3062 -0.2851
16322SOL    HW149144   0.293   3.801   6.703 -1.5905 -0.7457 -0.2709
16322SOL    HW249145   0.204   3.938   6.702 -0.8603 -0.2688 -0.9913
16323SOL     OW49146   0.516   1.545   3.012 -0.1367  0.1989  0.1765
16323SOL    HW149147   0.529   1.515   2.918  0.7067 -0.5044  0.5084
16323SOL    HW249148   0.551   1.638   3.023 -2.4627  1.2722 -0.7752
16324SOL     OW49149   4.397   2.772   3.939  0.3334 -0.3554 -0.2595
16324SOL    HW149150   4.327   2.842   3.952  1.6960  1.0354 -0.0272
16324SOL    HW249151   4.481   2.815   3.904  1.2821 -1.8407  0.0861
16325SOL     OW49152   8.450   3.960   5.263 -0.6137 -0.5577 -0.0184
16325SOL    HW149153   8.401   3.892   5.208 -0.3494  0.6556 -1.8499
16325SOL    HW249154   8.543   3.969   5.229 -0.6540  0.7251  0.1628
16326SOL     OW49155   4.850   8.072   8.571  0.3803 -0.0727  0.7004
16326SOL    HW149156   4.818   8.147   8.629  1.6997  0.3189  0.9749
16326SOL    HW249157   4.936   8.036   8.608  0.8343 -0.3462 -0.5679
16327SOL     OW49158   0.858   8.781   3.699  0.2215 -0.3568  0.2483
16327SOL    HW149159   0.863   8.841   3.619  0.6209  1.1829  1.3770
16327SOL    HW249160   0.872   8.687   3.670  0.4063  0.1544 -1.4850
16328SOL     OW49161   2.465   3.780   8.783  0.7200  0.3884  0.1980
16328SOL    HW149162   2.550   3.826   8.809  0.6355  0.7220 -0.0963
16328SOL    HW249163   2.477   3.738   8.692  0.3742  0.9702 -0.1202
16329SOL     OW49164   4.346   7.896   7.185  0.4277 -0.0143 -0.4796
16329SOL    HW149165   4.255   7.855   7.192  0.5262 -0.4632 -1.6514
16329SOL    HW249166   4.351   7.975   7.247 -0.6417 -0.1820 -0.1482
16330SOL     OW49167   4.974   8.660   3.307 -0.4099  0.4385  0.1106
16330SOL    HW149168   5.023   8.664   3.394 -0.7291 -0.9038  0.3781
16330SOL    HW249169   4.919   8.577   3.304 -0.1498  0.2962 -1.5247
16331SOL     OW49170   8.070   2.526   0.052 -0.1626  0.0035 -0.1612
16331SOL    HW149171   8.086   2.432   0.023 -0.0882 -0.2016  0.5330
16331SOL    HW249172   8.155   2.578   0.044  0.6837 -0.8187  2.5252
16332SOL     OW49173   1.296   4.774   0.194 -0.1643  0.0479 -0.0957
16332SOL    HW149174   1.232   4.850   0.201  1.0962  1.3353 -1.8693
16332SOL    HW249175   1.387   4.804   0.221 -0.1392 -1.6468  1.9676
16333SOL     OW49176   6.112   5.024   2.283  0.5219 -0.2529  0.3223
16333SOL    HW149177   6.125   5.028   2.382 -1.9847  0.2278  0.7208
16333SOL    HW249178   6.084   5.115   2.250 -2.8309 -1.2504 -0.0079
16334SOL     OW49179   7.501   7.825   6.234 -0.2937  0.2671  0.2756
16334SOL    HW149180   7.467   7.882   6.159  0.9071 -1.1146 -1.3967
16334SOL    HW249181   7.446   7.743   6.241 -0.4721  0.4436  1.0091
16335SOL     OW49182   3.783   6.474   1.150  0.1365  0.6795 -0.0351
16335SOL    HW149183   3.821   6.428   1.070 -0.0566  1.5158 -0.6192
16335SOL    HW249184   3.692   6.509   1.129  0.1628  1.0799  0.4861
16336SOL     OW49185   4.973   0.110   4.730 -0.5308 -0.2934 -0.0219
16336SOL    HW149186   4.963   0.131   4.633 -0.3306  0.4339  0.1060
16336SOL    HW249187   4.990   0.013   4.742 -2.0572 -0.6664 -0.6163
16337SOL     OW49188   0.296   7.619   6.970  0.0893 -0.0880 -0.3163
16337SOL    HW149189   0.295   7.718   6.956 -1.1908 -0.0375  0.0197
16337SOL    HW249190   0.239   7.575   6.901 -0.4269 -0.4648  0.3344
16338SOL     OW49191   1.742   0.994   0.025  0.3195 -0.3846  0.8896
16338SOL    HW149192   1.657   1.027   0.065  0.0561 -0.2799  0.2434
16338SOL    HW249193   1.807   1.070   0.016 -0.0491 -0.1713  0.0155
16339SOL     OW49194   2.674   1.777   2.067  0.2990 -0.2536  0.5790
16339SOL    HW149195   2.626   1.832   2.135  0.8229  0.2815  0.5252
16339SOL    HW249196   2.739   1.835   2.017 -0.5118 -0.4959 -0.7934
16340SOL     OW49197   4.909   0.205   7.077  0.3832 -0.0266 -0.1506
16340SOL    HW149198   4.883   0.164   7.164  0.1555  0.7115  0.1371
16340SOL    HW249199   4.828   0.215   7.019  0.6688 -1.3472 -0.8234
16341SOL     OW49200   7.629   3.001   4.838 -0.7360  0.2396 -0.3430
16341SOL    HW149201   7.683   2.970   4.760  0.3484  2.6179 -0.6442
16341SOL    HW249202   7.602   2.923   4.894  1.3733 -1.2256 -1.2485
16342SOL     OW49203   8.194   8.174   3.099 -0.2424 -0.0480 -0.1556
16342SOL    HW149204   8.161   8.129   3.181  0.6154 -0.9775 -0.3077
16342SOL    HW249205   8.140   8.143   3.020  0.1311 -0.5532 -0.2118
16343SOL     OW49206   3.232   5.523   0.692 -0.2387  0.5766 -0.2092
16343SOL    HW149207   3.287   5.605   0.676 -1.2079  1.0972 -0.9542
16343SOL    HW249208   3.184   5.498   0.608  1.0929 -1.5772 -0.4101
16344SOL     OW49209   1.554   6.746   4.896 -0.0196  0.2845 -0.3740
16344SOL    HW149210   1.515   6.784   4.812 -0.2498  0.6584 -0.1026
16344SOL    HW249211   1.603   6.662   4.875  1.1481  1.1285 -1.1146
16345SOL     OW49212   8.641   5.974   5.485 -0.2066  0.5565 -0.0114
16345SOL    HW149213   8.601   6.060   5.519  0.7204  0.3370  1.7701
16345SOL    HW249214   8.569   5.907   5.473 -0.7416  1.0731  0.2460
16346SOL     OW49215   7.114   6.738   1.309  0.0909  0.0680 -0.4738
16346SOL    HW149216   7.156   6.726   1.399 -1.0244  1.5346  0.2914
16346SOL    HW249217   7.165   6.685   1.241  1.1293 -0.8495  0.9581
16347SOL     OW49218   1.947   6.323   0.727  0.0847  0.1646  0.8503
16347SOL    HW149219   2.007   6.334   0.648  0.8837 -0.3182  1.3701
16347SOL    HW249220   1.852   6.331   0.699  0.3207 -0.9762 -0.3327
16348SOL     OW49221   0.892   5.541   5.812 -0.7975 -0.5343  0.1633
16348SOL    HW149222   0.828   5.500   5.877  1.3612 -3.0797  0.8251
16348SOL    HW249223   0.933   5.470   5.755  0.9951  1.0651 -0.6669
16349SOL     OW49224   1.644   6.600   7.033  0.6094 -0.2174  0.1925
16349SOL    HW149225   1.691   6.518   7.064  0.6533 -0.6968 -1.0821
16349SOL    HW249226   1.689   6.681   7.070  1.5138 -0.7193  0.2034
16350SOL     OW49227   5.775   2.051   4.314  0.2060  0.2458  0.1721
16350SOL    HW149228   5.859   1.999   4.301  1.4827  2.2825 -0.2714
16350SOL    HW249229   5.794   2.148   4.299 -2.3366  0.7292 -0.3953
16351SOL     OW49230   1.161   8.153   7.448 -0.5896  0.4892 -0.1857
16351SOL    HW149231   1.255   8.171   7.419 -1.2756  0.6408 -2.5080
16351SOL    HW249232   1.098   8.211   7.396 -2.0050  0.1952  1.1258
16352SOL     OW49233   6.687   8.185   7.058  0.2534 -0.4782 -0.4119
16352SOL    HW149234   6.606   8.195   7.117 -1.1228  0.0691 -2.3035
16352SOL    HW249235   6.681   8.099   7.008  0.4077 -0.0563 -1.1662
16353SOL     OW49236   2.816   7.215   6.030 -0.4890  0.2522  0.3658
16353SOL    HW149237   2.901   7.265   6.049 -0.0592 -0.1299 -0.5122
16353SOL    HW249238   2.822   7.171   5.941 -1.3288 -0.4014  0.6165
16354SOL     OW49239   6.597   4.596   5.397 -0.7537 -0.0559 -0.1828
16354SOL    HW149240   6.509   4.568   5.435 -0.8792 -1.5782 -1.5081
16354SOL    HW249241   6.583   4.639   5.308 -0.1888  0.2461 -0.1328
16355SOL     OW49242   3.772   2.051   2.982  0.0875 -0.4142 -0.1049
16355SOL    HW149243   3.691   1.994   2.997  0.4777 -0.7068  1.0652
16355SOL    HW249244   3.743   2.144   2.961 -0.5621 -0.5060  0.3351
16356SOL     OW49245   8.494   3.482   6.096 -0.5147 -0.0095  0.2284
16356SOL    HW149246   8.549   3.565   6.097  0.8349 -0.8503 -0.3896
16356SOL    HW249247   8.489   3.444   6.188 -0.6632  0.4512  0.4128
16357SOL     OW49248   0.548   8.517   7.423 -0.0897  0.5381 -0.2584
16357SOL    HW149249   0.546   8.520   7.523  0.2802  0.4865 -0.2485
16357SOL    HW249250   0.576   8.426   7.393 -4.3146 -0.9290 -0.4606
16358SOL     OW49251   3.582   1.574   0.512  0.3824  0.3655 -0.0702
16358SOL    HW149252   3.546   1.667   0.513  0.2030  0.2953  0.0963
16358SOL    HW249253   3.556   1.529   0.426  1.2753  0.7794 -0.5625
16359SOL     OW49254   4.353   3.034   8.820 -0.0286  0.0978 -0.0947
16359SOL    HW149255   4.262   3.014   8.783  0.5625 -1.0234 -0.9977
16359SOL    HW249256   4.396   3.105   8.764 -0.6058  1.1674  0.7725
16360SOL     OW49257   3.193   0.383   2.992 -0.1194  0.4279  0.1734
16360SOL    HW149258   3.223   0.355   3.083 -0.4322 -2.1176 -0.4347
16360SOL    HW249259   3.100   0.419   2.997 -0.0694  0.4729  0.8816
16361SOL     OW49260   5.088   7.687   5.537 -0.6015 -0.1207  0.0103
16361SOL    HW149261   5.023   7.679   5.461 -1.6482  0.3257  0.8298
16361SOL    HW249262   5.089   7.781   5.570  0.3455 -0.1645  0.1211
16362SOL     OW49263   0.832   2.437   4.920  0.5575  0.8054 -0.1863
16362SOL    HW149264   0.884   2.512   4.961 -0.2321  0.2530  1.9635
16362SOL    HW249265   0.749   2.474   4.878  0.2614  1.1756  0.7004
16363SOL     OW49266   6.333   7.727   6.930  0.3569  0.2565  0.5467
16363SOL    HW149267   6.274   7.660   6.885  0.8481 -0.7321  1.3288
16363SOL    HW249268   6.364   7.794   6.864  0.5224 -0.7679 -0.4508
16364SOL     OW49269   5.933   5.458   2.031  0.1714 -0.9366  0.2242
16364SOL    HW149270   5.843   5.494   2.055 -0.1419 -0.5728 -1.3514
16364SOL    HW249271   5.970   5.511   1.954  1.2170 -1.8239  0.0973
16365SOL     OW49272   7.625   4.655   1.703  0.5031 -0.1183  0.3414
16365SOL    HW149273   7.563   4.733   1.711 -0.5022 -0.7160 -1.0710
16365SOL    HW249274   7.598   4.584   1.768  0.1019 -0.1033  0.1974
16366SOL     OW49275   1.185   7.692   8.588 -0.4829  0.5204 -0.1727
16366SOL    HW149276   1.174   7.593   8.595  1.3914  0.3806  1.8832
16366SOL    HW249277   1.281   7.716   8.596 -0.8922  2.5251 -0.6844
16367SOL     OW49278   8.350   2.337   6.326 -0.4693  0.6092  0.4127
16367SOL    HW149279   8.430   2.277   6.336 -0.1816  0.0724 -3.4081
16367SOL    HW249280   8.276   2.304   6.385  1.5462  0.1703  2.8527
16368SOL     OW49281   5.346   0.974   7.871 -0.0574 -0.1758 -0.0888
16368SOL    HW149282   5.276   0.977   7.799  0.9879 -1.2226 -1.2044
16368SOL    HW249283   5.309   1.013   7.955 -1.2062  1.4470 -1.2744
16369SOL     OW49284   3.948   2.277   4.032 -0.1897  0.4866  0.1810
16369SOL    HW149285   3.874   2.243   4.091 -0.1496  0.2099  0.0732
16369SOL    HW249286   3.934   2.245   3.939 -0.0418  0.6029  0.1182
16370SOL     OW49287   7.715   7.230   0.658  0.0541  0.3510 -0.2939
16370SOL    HW149288   7.751   7.179   0.735 -0.0129 -0.6005 -0.8810
16370SOL    HW249289   7.683   7.320   0.689 -1.0783 -0.4685  0.9990
16371SOL     OW49290   2.420   8.157   8.085  0.8343 -0.0113  0.2041
16371SOL    HW149291   2.485   8.081   8.090  0.4087 -0.3462  0.9108
16371SOL    HW249292   2.341   8.136   8.143  1.8953  2.1091  2.6059
16372SOL     OW49293   0.227   4.187   6.227 -0.0727  0.0249 -0.5448
16372SOL    HW149294   0.136   4.220   6.201 -0.4733 -1.3765 -1.0721
16372SOL    HW249295   0.245   4.101   6.178  1.1881 -0.1477  0.2006
16373SOL     OW49296   0.107   1.583   5.114  0.5144 -0.0174 -0.2870
16373SOL    HW149297   0.052   1.545   5.189  0.5220  0.7437  0.1197
16373SOL    HW249298   0.141   1.509   5.057  0.7148 -0.6394  0.6125
16374SOL     OW49299   2.901   6.132   1.935  0.3761 -0.1307  0.1937
16374SOL    HW149300   2.826   6.124   2.000  1.5122  0.1772  1.6168
16374SOL    HW249301   2.966   6.201   1.968  0.5343  0.7076 -1.7607
16375SOL     OW49302   6.049   6.886   5.112 -0.0105  0.4106  0.0243
16375SOL    HW149303   5.961   6.924   5.085  1.5189  3.5961 -0.9917
16375SOL    HW249304   6.083   6.935   5.192  0.1812 -1.9193  1.4681
16376SOL     OW49305   6.345   3.441   7.677 -0.2553  0.3685 -0.0134
16376SOL    HW149306   6.294   3.472   7.758 -0.7395  0.4323 -0.3426
16376SOL    HW249307   6.354   3.341   7.680  1.4505  0.5043  1.1366
16377SOL     OW49308   8.147   0.848   7.328 -0.1515  0.4610 -0.0272
16377SOL    HW149309   8.175   0.941   7.304  0.8876  0.2076  0.1544
16377SOL    HW249310   8.202   0.815   7.405  0.7325 -0.9380 -1.1947
16378SOL     OW49311   5.082   2.381   2.198 -0.0491  0.0569  0.3240
16378SOL    HW149312   5.138   2.303   2.224 -1.8693 -0.4008  3.3493
16378SOL    HW249313   4.986   2.354   2.196 -0.4858  1.5371 -1.6773
16379SOL     OW49314   3.792   8.842   8.795 -0.4310 -0.0904  0.5516
16379SOL    HW149315   3.860   8.794   8.852  0.4013 -0.2316 -0.5308
16379SOL    HW249316   3.837   8.880   8.715 -1.8980 -1.6848 -1.1203
16380SOL     OW49317   2.887   1.175   7.731 -0.3202  0.0912 -0.2524
16380SOL    HW149318   2.812   1.128   7.686  0.1318 -1.6277  0.6939
16380SOL    HW249319   2.922   1.118   7.805  0.0999  2.0536  1.1427
16381SOL     OW49320   5.476   2.212   2.293  0.1069 -0.1792 -0.5813
16381SOL    HW149321   5.547   2.233   2.226  1.1250 -2.5029 -0.3369
16381SOL    HW249322   5.511   2.145   2.359 -1.9660 -0.5597  0.2184
16382SOL     OW49323   3.719   5.328   0.678  0.2291 -0.5068  0.3016
16382SOL    HW149324   3.776   5.303   0.756  3.1218  1.4350 -1.0077
16382SOL    HW249325   3.725   5.427   0.662 -1.7835 -0.5653 -1.2773
16383SOL     OW49326   6.254   3.523   5.735 -0.1882  0.5161 -0.6212
16383SOL    HW149327   6.223   3.478   5.651 -0.8526  0.9753 -0.6341
16383SOL    HW249328   6.185   3.590   5.764 -0.8097 -0.8923  1.3015
16384SOL     OW49329   5.819   1.383   2.855 -0.3173  0.4429 -0.1515
16384SOL    HW149330   5.795   1.295   2.895 -0.9371  0.8832  0.4512
16384SOL    HW249331   5.736   1.438   2.842  0.2803  1.7999  1.5171
16385SOL     OW49332   2.630   0.559   3.189 -0.1008  0.1157 -0.6104
16385SOL    HW149333   2.565   0.605   3.248 -0.2090 -0.7235 -0.0449
16385SOL    HW249334   2.603   0.569   3.094 -1.6933 -1.1334 -0.3328
16386SOL     OW49335   3.118   8.033   4.186 -0.1940 -0.5742 -0.2197
16386SOL    HW149336   3.178   8.025   4.266 -1.3798  0.9580  0.8800
16386SOL    HW249337   3.026   8.060   4.215 -0.8642 -0.7360 -2.0515
16387SOL     OW49338   2.222   5.545   2.610 -0.3669  0.4507 -0.4193
16387SOL    HW149339   2.302   5.551   2.670 -1.7018  0.8501  1.4422
16387SOL    HW249340   2.215   5.452   2.574 -0.4332 -0.3454  1.4868
16388SOL     OW49341   1.752   5.829   5.333  0.5657 -0.5571  0.2681
16388SOL    HW149342   1.757   5.916   5.382 -0.1058 -0.3475 -0.0254
16388SOL    HW249343   1.838   5.780   5.344  0.7268 -0.1362  0.9587
16389SOL     OW49344   0.048   5.276   4.891 -0.2618  0.4698 -0.5789
16389SOL    HW149345   0.042   5.351   4.825 -0.8633  1.3660  0.4585
16389SOL    HW249346   0.144   5.258   4.913 -0.0931  0.6107 -1.1990
16390SOL     OW49347   3.616   1.820   5.867 -0.6431 -0.5185  0.4302
16390SOL    HW149348   3.525   1.848   5.896 -1.4322 -0.6878 -1.7653
16390SOL    HW249349   3.672   1.900   5.849 -1.1970 -0.3726 -0.7002
16391SOL     OW49350   0.444   0.488   3.624 -0.9249  0.0497 -0.2854
16391SOL    HW149351   0.459   0.575   3.670  0.6384 -0.6685  0.6725
16391SOL    HW249352   0.382   0.432   3.678 -1.1540  0.2022 -0.3923
16392SOL     OW49353   5.266   2.524   7.986  0.0819  0.6329 -0.5080
16392SOL    HW149354   5.249   2.598   8.051 -0.6653 -0.5366  0.6841
16392SOL    HW249355   5.333   2.461   8.025 -0.7794 -0.3681 -0.6150
16393SOL     OW49356   3.939   1.667   1.894  0.1414 -0.0440 -0.5849
16393SOL    HW149357   3.879   1.590   1.912  1.9156 -1.1871  0.7328
16393SOL    HW249358   3.941   1.728   1.973 -0.2759  0.7063 -1.1350
16394SOL     OW49359   4.602   7.236   4.827  0.2245 -0.0638 -0.5666
16394SOL    HW149360   4.658   7.301   4.776  0.2678 -0.9973 -1.7456
16394SOL    HW249361   4.510   7.233   4.788 -0.8460  1.7278  1.5780
16395SOL     OW49362   4.739   5.056   2.312 -0.0929 -0.5172  0.2554
16395SOL    HW149363   4.818   5.117   2.312 -0.6605  0.2341  1.3724
16395SOL    HW249364   4.662   5.101   2.268 -0.3071 -0.7077  0.4324
16396SOL     OW49365   3.756   7.047   5.475  0.4445  0.4026 -0.1525
16396SOL    HW149366   3.702   7.087   5.402 -0.5989 -0.4273  0.1441
16396SOL    HW249367   3.808   7.119   5.521 -1.9193  1.5888  0.8438
16397SOL     OW49368   5.837   7.888   8.617  0.2844  0.0830 -0.1761
16397SOL    HW149369   5.930   7.877   8.583 -0.2809  0.0288 -1.8088
16397SOL    HW249370   5.820   7.985   8.635  0.6394  0.0960  0.1058
16398SOL     OW49371   8.643   8.373   8.680  0.2060  0.6500 -0.0533
16398SOL    HW149372   8.586   8.410   8.753 -0.1548 -0.3924  0.2062
16398SOL    HW249373   8.628   8.426   8.596 -0.9294  0.5683  0.0878
16399SOL     OW49374   0.350   5.461   8.620 -0.0751 -0.2835 -0.1495
16399SOL    HW149375   0.423   5.470   8.552 -0.8234 -1.5257 -1.1429
16399SOL    HW249376   0.268   5.507   8.586 -0.4516 -0.9088 -0.0867
16400SOL     OW49377   8.339   2.368   6.058 -0.3580 -0.3454 -0.0531
16400SOL    HW149378   8.337   2.370   6.158 -0.6472  0.1882 -0.0727
16400SOL    HW249379   8.391   2.446   6.024 -0.3520 -0.4682 -0.3274
16401SOL     OW49380   5.330   3.495   3.875 -0.0489 -0.3198  0.2598
16401SOL    HW149381   5.373   3.408   3.851 -0.1519 -0.6331  1.1570
16401SOL    HW249382   5.345   3.561   3.802 -1.7660 -1.6860 -1.4309
16402SOL     OW49383   4.286   8.800   5.946  0.4008 -0.0524 -0.0702
16402SOL    HW149384   4.341   8.883   5.955  0.0803  0.0093  1.6604
16402SOL    HW249385   4.346   8.721   5.931  0.7412  0.3977 -1.1697
16403SOL     OW49386   5.538   4.969   2.413 -0.2623 -0.1965 -0.1081
16403SOL    HW149387   5.475   5.046   2.411  0.7044  0.6084 -1.0220
16403SOL    HW249388   5.536   4.926   2.504  0.9513  2.4320  1.2807
16404SOL     OW49389   7.645   0.702   8.607 -0.9963  0.6568 -0.3460
16404SOL    HW149390   7.731   0.752   8.618 -1.1787  1.2827 -1.5274
16404SOL    HW249391   7.665   0.607   8.586 -0.6467  0.0755  2.2839
16405SOL     OW49392   2.812   0.368   7.257 -0.1565  0.2933  0.1700
16405SOL    HW149393   2.712   0.362   7.245 -0.1655 -0.8625  0.6569
16405SOL    HW249394   2.854   0.288   7.215  0.3736 -0.3548  1.8614
16406SOL     OW49395   7.519   2.848   5.360  0.4817 -0.0739 -0.0613
16406SOL    HW149396   7.537   2.774   5.425 -0.2898 -1.5166 -1.4192
16406SOL    HW249397   7.421   2.866   5.357  0.4890 -0.1775 -0.9793
16407SOL     OW49398   6.367   6.924   2.090 -0.2795  0.3873  0.0032
16407SOL    HW149399   6.397   7.000   2.033 -0.5040  1.5402  1.3625
16407SOL    HW249400   6.275   6.896   2.062  0.4498 -0.5294 -1.5911
16408SOL     OW49401   0.810   2.109   4.003 -0.4392  0.0880 -0.4135
16408SOL    HW149402   0.786   2.206   3.994 -0.7829  0.2616  1.7811
16408SOL    HW249403   0.903   2.101   4.038 -0.5299 -0.3538 -0.2673
16409SOL     OW49404   0.917   6.398   0.399  0.7317  0.3791 -0.3553
16409SOL    HW149405   0.916   6.483   0.451  2.1405 -0.0469  0.4205
16409SOL    HW249406   0.898   6.417   0.303 -0.1861  1.3897  0.0047
16410SOL     OW49407   1.108   1.788   3.746 -0.4471  0.0741  0.4923
16410SOL    HW149408   1.015   1.785   3.709  0.1668 -0.1024 -1.1234
16410SOL    HW249409   1.145   1.880   3.733  0.0907 -0.2276 -0.1990
16411SOL     OW49410   4.108   4.784   2.786 -0.1659  0.6442  0.3852
16411SOL    HW149411   4.158   4.851   2.732  0.5239  0.7739  1.1666
16411SOL    HW249412   4.098   4.699   2.733  0.6712  0.6999  0.1239
16412SOL     OW49413   2.316   1.690   2.542 -0.3377 -0.4649  0.5997
16412SOL    HW149414   2.273   1.773   2.507 -1.9049 -1.1758  0.7456
16412SOL    HW249415   2.291   1.676   2.638 -0.6096 -1.4094  0.4079
16413SOL     OW49416   0.924   5.786   5.084  0.5472 -0.5370 -0.1128
16413SOL    HW149417   0.986   5.719   5.043  1.1715  0.7800 -1.4016
16413SOL    HW249418   0.842   5.794   5.027  0.4181 -0.2990  0.1073
16414SOL     OW49419   4.015   2.995   5.648 -0.4690 -0.3117 -0.2318
16414SOL    HW149420   4.089   3.024   5.588 -0.8552  0.2308 -0.4546
16414SOL    HW249421   3.930   3.040   5.621 -0.7678 -0.4993  0.3651
16415SOL     OW49422   3.243   3.405   1.270 -0.7452 -0.4524  0.5254
16415SOL    HW149423   3.340   3.385   1.283 -0.6584 -0.1367  0.3576
16415SOL    HW249424   3.231   3.462   1.190 -1.1181 -0.8891  0.2651
16416SOL     OW49425   3.979   1.510   3.581  0.1234  0.4665 -0.1894
16416SOL    HW149426   3.924   1.432   3.610  0.2825  0.9153  1.4225
16416SOL    HW249427   4.020   1.491   3.492  1.0397 -1.7607  0.6299
16417SOL     OW49428   3.628   8.346   7.953  0.1261 -0.0701  0.0592
16417SOL    HW149429   3.720   8.339   7.993  0.4622  0.8440 -0.5309
16417SOL    HW249430   3.576   8.414   8.004 -0.3928 -0.9092  0.6776
16418SOL     OW49431   5.793   3.344   5.563 -0.0448 -0.2722 -0.1328
16418SOL    HW149432   5.851   3.313   5.638 -0.2008  0.9099  0.5044
16418SOL    HW249433   5.841   3.415   5.511 -1.0907  1.1493  0.7576
16419SOL     OW49434   0.633   7.681   3.224  0.3511  0.1446  0.2969
16419SOL    HW149435   0.607   7.591   3.261  0.7355 -0.7663 -1.5718
16419SOL    HW249436   0.731   7.682   3.204  0.6584  1.5168  1.6514
16420SOL     OW49437   7.997   5.158   8.851 -0.3008  0.1198 -0.9990
16420SOL    HW149438   7.929   5.204   8.793 -2.4921 -3.1386 -1.3087
16420SOL    HW249439   7.973   5.171   8.947 -0.8122 -0.1544 -1.0815
16421SOL     OW49440   1.969   6.415   5.878 -0.2211  0.8399  0.4126
16421SOL    HW149441   1.947   6.348   5.949  0.3572  0.9533  0.7080
16421SOL    HW249442   1.946   6.507   5.911  1.1687  1.0219  0.9547
16422SOL     OW49443   2.893   4.157   7.473  0.8303  0.5772 -0.2214
16422SOL    HW149444   2.850   4.215   7.404  1.3911 -0.7954 -1.7819
16422SOL    HW249445   2.827   4.137   7.545 -0.1570  1.0473 -0.9660
16423SOL     OW49446   1.414   8.511   2.379  0.3777 -0.2128  0.2830
16423SOL    HW149447   1.509   8.479   2.386  0.2682 -0.2620  2.0700
16423SOL    HW249448   1.366   8.490   2.465 -0.9676  0.7292 -0.2163
16424SOL     OW49449   0.227   3.450   4.969 -0.4407 -0.0988  0.5132
16424SOL    HW149450   0.171   3.532   4.977 -0.2608 -0.0148  0.9480
16424SOL    HW249451   0.170   3.373   4.940 -0.7813 -0.0149  0.9505
16425SOL     OW49452   3.993   7.491   5.603  0.0352  0.0696 -0.3543
16425SOL    HW149453   3.982   7.535   5.692  0.8209 -0.4208  0.0027
16425SOL    HW249454   4.009   7.561   5.533  1.3495  0.3898  0.2202
16426SOL     OW49455   4.731   6.122   4.830 -0.2695  0.5796  0.1931
16426SOL    HW149456   4.656   6.117   4.764  1.1142  1.1878 -1.5026
16426SOL    HW249457   4.698   6.093   4.920 -2.4074  0.4248 -0.5769
16427SOL     OW49458   7.523   4.935   1.779 -0.0989  0.1887  0.0538
16427SOL    HW149459   7.463   4.856   1.774 -1.9686  1.5000  0.5995
16427SOL    HW249460   7.531   4.976   1.688 -1.0866  0.7318  0.2001
16428SOL     OW49461   2.282   1.609   2.044 -0.5157  0.1938  0.1733
16428SOL    HW149462   2.352   1.635   1.979 -0.6086  1.2698  0.4833
16428SOL    HW249463   2.304   1.520   2.083  0.3446  0.2408 -0.1900
16429SOL     OW49464   4.691   6.995   2.772  0.3240 -0.1563 -0.1192
16429SOL    HW149465   4.751   7.048   2.831 -1.1410  0.7993  0.5836
16429SOL    HW249466   4.619   6.952   2.827  0.1116 -0.9321 -0.9687
16430SOL     OW49467   0.323   5.676   4.096 -0.3328 -0.4586 -0.5802
16430SOL    HW149468   0.233   5.647   4.065 -0.3997 -1.7316  0.6865
16430SOL    HW249469   0.315   5.763   4.145 -0.7689 -0.2598 -0.9999
16431SOL     OW49470   6.809   2.328   7.601  0.1160  0.2672  0.0129
16431SOL    HW149471   6.725   2.306   7.551  0.3902 -0.2506 -0.2161
16431SOL    HW249472   6.887   2.284   7.557  0.5148  0.7629  0.2163
16432SOL     OW49473   8.747   2.581   2.320 -0.3872  0.2843 -0.1484
16432SOL    HW149474   8.719   2.486   2.332 -0.8058  0.4287  0.0312
16432SOL    HW249475   8.745   2.605   2.223  1.5613 -0.4467 -0.4085
16433SOL     OW49476   1.217   6.278   5.039  0.8633  0.0910  0.1587
16433SOL    HW149477   1.202   6.314   4.947  2.3400  0.6095  0.0839
16433SOL    HW249478   1.181   6.185   5.046  0.7878  0.0297 -0.9563
16434SOL     OW49479   7.797   0.501   1.403  0.3063  0.2054 -0.3625
16434SOL    HW149480   7.762   0.516   1.495 -1.0477  0.7092 -0.9452
16434SOL    HW249481   7.874   0.563   1.386 -0.4230  1.2112 -0.0957
16435SOL     OW49482   2.482   2.740   2.843  0.5822  0.2214  0.2636
16435SOL    HW149483   2.391   2.773   2.868  0.9224  2.4912 -1.2166
16435SOL    HW249484   2.548   2.764   2.914  0.5730  1.5037 -0.1501
16436SOL     OW49485   8.176   5.011   1.332 -0.2975  0.0354  0.1678
16436SOL    HW149486   8.216   5.086   1.386  0.9877 -0.8559  0.5008
16436SOL    HW249487   8.212   5.013   1.239  0.4865 -0.7188  0.4434
16437SOL     OW49488   7.604   6.394   1.216 -0.3443  0.2207 -0.3131
16437SOL    HW149489   7.593   6.493   1.231  3.7106  0.7387  0.2605
16437SOL    HW249490   7.619   6.377   1.119  1.5946  0.5818 -0.1093
16438SOL     OW49491   4.435   3.754   2.467  0.5681  0.1638 -0.3136
16438SOL    HW149492   4.452   3.695   2.388  0.0008  1.0452 -1.1148
16438SOL    HW249493   4.368   3.711   2.527  0.1646 -0.0200 -0.8857
16439SOL     OW49494   0.045   8.176   4.379  0.6047  0.6019  0.5326
16439SOL    HW149495   0.118   8.148   4.315 -1.2189  0.1417 -1.4675
16439SOL    HW249496  -0.016   8.241   4.333 -0.2448  1.0097  2.1726
16440SOL     OW49497   2.165   2.827   5.317  0.5705 -0.1768  0.0183
16440SOL    HW149498   2.163   2.863   5.410 -1.4866 -1.8729  0.7238
16440SOL    HW249499   2.075   2.840   5.274  1.6039  0.9729 -1.9353
16441SOL     OW49500   7.624   6.875   5.899 -0.0640 -0.3063 -0.1400
16441SOL    HW149501   7.658   6.860   5.992  0.3970  1.0267 -0.0705
16441SOL    HW249502   7.549   6.941   5.902  0.3668  0.2262 -0.7607
16442SOL     OW49503   5.720   5.114   1.001 -0.1371 -0.2877  0.4081
16442SOL    HW149504   5.752   5.119   1.096 -0.1657  1.5415  0.3465
16442SOL    HW249505   5.800   5.109   0.940 -0.1008 -0.6987  0.4873
16443SOL     OW49506   1.265   3.994   7.282  0.3646  0.1887 -0.2129
16443SOL    HW149507   1.327   4.072   7.277  0.5652 -0.0477 -3.4077
16443SOL    HW249508   1.306   3.916   7.233 -1.0319 -1.0586  0.5120
16444SOL     OW49509   6.020   6.341   0.732 -0.2925 -0.1275 -0.2467
16444SOL    HW149510   5.962   6.269   0.693  1.2708 -0.3259 -2.3681
16444SOL    HW249511   5.979   6.430   0.712  0.2161 -0.2518 -1.9958
16445SOL     OW49512   1.985   4.981   4.084 -0.2451 -0.2315  0.3184
16445SOL    HW149513   2.072   4.966   4.038 -0.8726 -1.0493 -0.6143
16445SOL    HW249514   1.915   5.006   4.018 -0.9443 -0.4886  0.9392
16446SOL     OW49515   6.055   5.660   2.310  0.7819  0.0252 -0.7143
16446SOL    HW149516   5.975   5.604   2.287 -0.4512  2.2291 -2.0850
16446SOL    HW249517   6.128   5.642   2.245  0.4172 -0.0740 -1.1048
16447SOL     OW49518   7.398   5.840   4.294 -0.3011  0.0993 -0.2130
16447SOL    HW149519   7.475   5.871   4.239  0.2437  1.4550  1.2078
16447SOL    HW249520   7.364   5.917   4.348 -1.5415 -0.8964  0.4610
16448SOL     OW49521   0.831   6.389   7.217  0.2502  0.4730  0.2908
16448SOL    HW149522   0.822   6.445   7.135 -0.9900 -0.5673 -0.3392
16448SOL    HW249523   0.906   6.423   7.274  0.0330  2.2580 -0.4265
16449SOL     OW49524   0.008   2.652   7.109 -0.3690  0.0568 -0.5671
16449SOL    HW149525  -0.081   2.623   7.147  0.3343  1.1185  2.0961
16449SOL    HW249526   0.016   2.751   7.116  1.6590 -0.1506  0.8564
16450SOL     OW49527   4.512   7.907   3.914 -0.1969  0.2258  0.1681
16450SOL    HW149528   4.519   7.827   3.973 -1.8308  1.4826  2.2165
16450SOL    HW249529   4.521   7.990   3.969 -2.7240  1.4961 -1.1386
16451SOL     OW49530   3.266   5.104   5.911 -0.4297 -0.1532 -0.0755
16451SOL    HW149531   3.327   5.056   5.975  0.7176  0.4942 -0.6412
16451SOL    HW249532   3.319   5.174   5.862 -1.4477 -0.1546 -1.2107
16452SOL     OW49533   0.887   4.371   7.832 -0.4499 -0.1417  0.0321
16452SOL    HW149534   0.846   4.342   7.918  0.9181 -0.5344  0.5771
16452SOL    HW249535   0.873   4.470   7.821 -1.0584 -0.1717  0.4564
16453SOL     OW49536   1.102   6.900   7.889  0.0277 -0.1663 -0.0326
16453SOL    HW149537   1.047   6.924   7.969 -0.3629 -0.1810 -0.2931
16453SOL    HW249538   1.057   6.826   7.839 -0.2685  0.5329 -0.8245
16454SOL     OW49539   4.557   0.661   2.588  0.0699  0.1251 -0.5037
16454SOL    HW149540   4.610   0.718   2.649 -0.1068  1.1637 -1.2924
16454SOL    HW249541   4.558   0.566   2.621  1.3014  0.3671  0.2003
16455SOL     OW49542   7.752   3.641   4.870  0.0184 -0.3210  0.6080
16455SOL    HW149543   7.673   3.585   4.896  0.0741 -0.8000 -0.2219
16455SOL    HW249544   7.810   3.654   4.950  1.6105 -4.0649  0.2657
16456SOL     OW49545   2.502   1.834   6.726 -0.4655 -0.3214 -0.0327
16456SOL    HW149546   2.506   1.782   6.811 -2.5740 -0.1822  0.2081
16456SOL    HW249547   2.502   1.772   6.648 -0.0727 -0.5216  0.1250
16457SOL     OW49548   8.735   5.490   7.570 -0.6103  0.1173 -0.4962
16457SOL    HW149549   8.818   5.469   7.519 -0.3224 -0.6430  0.2449
16457SOL    HW249550   8.667   5.532   7.510  0.3009  0.7261 -1.1087
16458SOL     OW49551   2.993   4.877   3.732  0.1396 -0.2378 -0.4852
16458SOL    HW149552   3.086   4.844   3.718  0.5609  1.2569 -1.4612
16458SOL    HW249553   2.938   4.804   3.773  1.8934 -0.9366  0.7950
16459SOL     OW49554   3.875   7.547   6.866  0.2126  0.2085  0.5358
16459SOL    HW149555   3.891   7.515   6.772  0.0846  1.3525  0.1091
16459SOL    HW249556   3.963   7.561   6.911  0.3461  1.5837 -0.1019
16460SOL     OW49557   6.860   2.158   1.318  0.0233 -0.0740 -0.0165
16460SOL    HW149558   6.866   2.258   1.317 -1.9666  0.0827  0.4730
16460SOL    HW249559   6.879   2.124   1.411 -0.3652 -0.0706  0.0635
16461SOL     OW49560   8.212   3.903   2.558  0.4255  0.2010  0.3930
16461SOL    HW149561   8.237   3.815   2.516 -0.1331  0.4855 -0.5729
16461SOL    HW249562   8.244   3.905   2.653 -1.8723 -2.1411  1.3610
16462SOL     OW49563   1.367   3.825   6.388  0.4549  0.4994  0.0024
16462SOL    HW149564   1.463   3.852   6.396  0.3785  0.9178 -0.4118
16462SOL    HW249565   1.360   3.725   6.395  0.9022  0.4750  0.1660
16463SOL     OW49566   0.352   4.167   4.995 -0.3811  0.1068  0.3277
16463SOL    HW149567   0.436   4.188   4.945 -0.1715 -0.6600  0.3425
16463SOL    HW249568   0.350   4.218   5.080 -0.7353  1.4236 -0.4469
16464SOL     OW49569   1.204   2.031   7.812  0.1610 -0.2177  0.2642
16464SOL    HW149570   1.205   1.958   7.744 -0.2525  0.4643 -0.4900
16464SOL    HW249571   1.121   2.086   7.801  0.9026  0.9247  0.2133
16465SOL     OW49572   4.173   1.572   6.901  0.1235 -0.0355  0.1149
16465SOL    HW149573   4.180   1.545   6.997  2.7854  0.5814  0.1796
16465SOL    HW249574   4.250   1.533   6.850 -1.2388 -0.3751 -1.8232
16466SOL     OW49575   3.521   3.598   6.841  0.1314 -0.0095 -0.2159
16466SOL    HW149576   3.608   3.646   6.855 -0.1385  0.4446 -0.0961
16466SOL    HW249577   3.484   3.570   6.930  1.3030 -2.2803 -0.3701
16467SOL     OW49578   6.472   4.986   1.641 -0.3541 -0.4994 -0.2897
16467SOL    HW149579   6.558   4.965   1.594 -0.0218 -0.7099  0.3925
16467SOL    HW249580   6.480   4.959   1.737 -0.6409  0.8712  0.1380
16468SOL     OW49581   3.928   0.424   4.605  0.1858 -0.4993 -0.0424
16468SOL    HW149582   3.878   0.406   4.689 -1.7048 -0.5196 -1.1210
16468SOL    HW249583   3.952   0.338   4.561  1.0639 -0.4866  0.3905
16469SOL     OW49584   0.476   2.341   0.183 -0.0283  0.1157 -0.3417
16469SOL    HW149585   0.481   2.322   0.085 -2.3679 -0.7091 -0.3480
16469SOL    HW249586   0.417   2.419   0.199  1.8519  1.4787  0.3530
16470SOL     OW49587   1.357   1.108   1.235  0.0608 -0.0222  0.2603
16470SOL    HW149588   1.434   1.049   1.213  0.3070  0.6428 -0.7437
16470SOL    HW249589   1.274   1.072   1.190  0.2302  0.4333 -0.4308
16471SOL     OW49590   5.562   0.940   5.791 -0.0044  0.3236  0.2587
16471SOL    HW149591   5.474   0.953   5.835 -0.3525  1.9298 -0.8472
16471SOL    HW249592   5.586   1.021   5.738  0.1852 -1.6251 -2.8608
16472SOL     OW49593   5.099   2.618   8.465  0.4769  0.3109 -0.2521
16472SOL    HW149594   5.013   2.593   8.421  0.8503 -2.1051  0.2457
16472SOL    HW249595   5.081   2.652   8.558  0.0521 -0.2470 -0.1261
16473SOL     OW49596   6.405   2.637   2.160  0.0286 -0.1012 -0.2930
16473SOL    HW149597   6.498   2.653   2.127  0.5232 -0.2812  0.9700
16473SOL    HW249598   6.382   2.707   2.227 -0.9419  0.2284 -0.9494
16474SOL     OW49599   5.927   6.943   4.628 -0.1527 -0.5477 -0.2685
16474SOL    HW149600   5.914   6.847   4.652  1.5055 -0.5873  0.6156
16474SOL    HW249601   5.960   6.950   4.534 -2.0116 -0.6942 -0.9750
16475SOL     OW49602   1.360   8.776   8.033  0.0604  0.3705  0.8681
16475SOL    HW149603   1.408   8.704   7.983  0.3550  0.7492  0.6008
16475SOL    HW249604   1.416   8.859   8.034 -0.1416  0.5093  1.4293
16476SOL     OW49605   1.889   8.226   5.519 -0.1339 -0.0001 -0.7670
16476SOL    HW149606   1.814   8.160   5.512  0.5171 -1.3167  2.6104
16476SOL    HW249607   1.865   8.298   5.583  1.9256 -1.4005  1.8054
16477SOL     OW49608   1.725   2.441   7.932 -0.0851 -0.4451 -0.7123
16477SOL    HW149609   1.783   2.387   7.872 -0.5416 -1.5472 -0.2017
16477SOL    HW249610   1.632   2.444   7.894 -0.4794 -1.5062  0.1174
16478SOL     OW49611   3.608   7.916   3.454 -0.4874 -0.2281  0.0205
16478SOL    HW149612   3.663   7.833   3.467  3.3705  1.8053 -1.6497
16478SOL    HW249613   3.597   7.963   3.541  0.4352 -0.7348  0.4240
16479SOL     OW49614   3.558   7.056   7.922  0.2593 -0.1766 -1.0048
16479SOL    HW149615   3.497   7.001   7.979  1.5737  0.6784  1.3853
16479SOL    HW249616   3.540   7.153   7.938  0.4049  0.0955 -2.3865
16480SOL     OW49617   0.643   4.513   7.706  0.2157 -0.2603 -0.1857
16480SOL    HW149618   0.670   4.422   7.735 -0.3668 -0.1916  0.5911
16480SOL    HW249619   0.684   4.533   7.617  2.7204 -0.1747  0.8860
16481SOL     OW49620   2.172   1.043   4.586  0.2286 -0.6061  0.1418
16481SOL    HW149621   2.267   1.025   4.562 -0.2442 -0.8312 -1.7736
16481SOL    HW249622   2.146   1.134   4.554 -0.4399 -0.8997 -0.1648
16482SOL     OW49623   3.720   1.677   3.040  0.6990 -0.3991  0.3103
16482SOL    HW149624   3.789   1.745   3.067  1.0410  0.2798 -2.0582
16482SOL    HW249625   3.710   1.610   3.113  3.5061 -0.2372  0.9759
16483SOL     OW49626   4.636   4.425   5.240 -0.4214 -0.3470  0.1815
16483SOL    HW149627   4.591   4.342   5.206 -0.2527  0.5196 -2.4134
16483SOL    HW249628   4.651   4.488   5.164  0.5134  1.5992  1.8743
16484SOL     OW49629   6.832   5.559   4.820  0.0149 -0.3271  0.0942
16484SOL    HW149630   6.804   5.608   4.902  0.5779 -1.7863  1.1918
16484SOL    HW249631   6.873   5.471   4.845  0.7956 -0.5303 -1.7146
16485SOL     OW49632   3.336   4.426   1.354 -0.0314  0.3000 -0.5684
16485SOL    HW149633   3.366   4.518   1.331 -0.1919  0.3624 -0.5314
16485SOL    HW249634   3.287   4.386   1.276  1.1451 -0.2408 -1.0566
16486SOL     OW49635   6.805   4.668   1.274  0.1084 -0.0279 -0.3742
16486SOL    HW149636   6.745   4.607   1.221  0.2102  1.6359 -2.5687
16486SOL    HW249637   6.835   4.621   1.357 -1.7795 -2.0239 -0.7066
16487SOL     OW49638   2.343   0.835   8.794  0.0401 -0.0312  0.1812
16487SOL    HW149639   2.428   0.793   8.826  0.3403 -0.7011 -1.3801
16487SOL    HW249640   2.277   0.836   8.868  1.4865  0.7620  1.5172
16488SOL     OW49641   1.869   4.236   7.167 -0.5010 -0.3487  0.3515
16488SOL    HW149642   1.880   4.139   7.190 -0.9451 -0.5203 -0.1247
16488SOL    HW249643   1.959   4.275   7.146 -0.3189 -0.6575  0.5430
16489SOL     OW49644   8.559   3.520   1.877 -0.6975 -1.0079  0.9534
16489SOL    HW149645   8.495   3.567   1.817  1.5018 -0.7552 -1.3625
16489SOL    HW249646   8.602   3.586   1.939  1.1639 -0.0873 -1.1673
16490SOL     OW49647   3.407   6.717   5.663 -0.2692 -0.4304 -0.5249
16490SOL    HW149648   3.423   6.730   5.565 -0.8404  0.0632 -0.5588
16490SOL    HW249649   3.339   6.783   5.695  1.4286  0.8547  0.6550
16491SOL     OW49650   8.263   6.084   4.796  0.1798 -0.0033  0.2300
16491SOL    HW149651   8.333   6.130   4.741  0.6195 -2.1867 -1.1522
16491SOL    HW249652   8.301   6.059   4.885  0.1899  1.4561  0.6628
16492SOL     OW49653   3.320   6.893   4.389 -0.2680  0.1096  0.2701
16492SOL    HW149654   3.414   6.873   4.417 -0.0888  0.5286 -0.0327
16492SOL    HW249655   3.321   6.943   4.303 -0.7745  0.0361  0.2207
16493SOL     OW49656   2.925   0.227   6.686 -0.3018  0.1127  0.2543
16493SOL    HW149657   2.967   0.317   6.700  0.1894  0.0350 -0.6519
16493SOL    HW249658   2.863   0.207   6.762 -1.9765  2.0938 -0.4656
16494SOL     OW49659   6.429   6.875   2.349  0.1200 -0.5001 -0.0917
16494SOL    HW149660   6.422   6.903   2.253 -1.0670  0.7101  0.3279
16494SOL    HW249661   6.433   6.775   2.354  0.6787 -0.5691 -1.4121
16495SOL     OW49662   8.762   5.779   0.269 -0.2649 -0.0405  0.4786
16495SOL    HW149663   8.770   5.874   0.238  2.2156  0.0408  1.1289
16495SOL    HW249664   8.707   5.775   0.352  1.1506  1.1720  1.5322
16496SOL     OW49665   3.613   1.865   1.868  0.0916  0.0728  0.0737
16496SOL    HW149666   3.568   1.829   1.950  0.0039 -1.7269 -0.7157
16496SOL    HW249667   3.689   1.924   1.895 -1.2217  1.2187  1.4234
16497SOL     OW49668   8.656   5.992   4.516 -0.0011 -0.3953  0.1359
16497SOL    HW149669   8.666   5.928   4.592 -2.6122 -1.0171  0.0698
16497SOL    HW249670   8.582   5.961   4.456 -0.9489  2.3284 -0.2633
16498SOL     OW49671   2.737   6.579   8.351  0.1458 -0.0290 -0.8346
16498SOL    HW149672   2.665   6.643   8.324  0.2674  0.2614 -0.4669
16498SOL    HW249673   2.824   6.610   8.312  0.4556  0.7800  0.4354
16499SOL     OW49674   5.420   7.827   4.496  0.0862 -0.1289 -0.3918
16499SOL    HW149675   5.518   7.808   4.489 -0.1989 -1.8918  0.0368
16499SOL    HW249676   5.379   7.768   4.565 -1.8536 -1.8338 -2.8413
16500SOL     OW49677   0.961   4.869   2.827  0.2636  0.3195  0.3225
16500SOL    HW149678   0.986   4.950   2.773  1.9016  0.3110  1.0188
16500SOL    HW249679   0.981   4.885   2.923 -0.6829 -0.4322  0.6596
16501SOL     OW49680   7.107   7.477   1.008  0.0138 -0.1819 -0.1643
16501SOL    HW149681   7.022   7.430   0.983 -0.1056 -0.3731  0.6035
16501SOL    HW249682   7.155   7.425   1.078  1.6694 -0.9972 -1.8283
16502SOL     OW49683   5.595   2.619   1.586 -0.3613 -0.1973 -0.2011
16502SOL    HW149684   5.642   2.531   1.580 -2.4805 -1.5120  1.1396
16502SOL    HW249685   5.503   2.610   1.548 -0.2229  1.8008 -1.1229
16503SOL     OW49686   7.392   7.920   6.004 -0.3978 -0.1344 -0.6148
16503SOL    HW149687   7.392   7.988   5.930 -1.9357  0.8893  0.2603
16503SOL    HW249688   7.317   7.855   5.989  0.9564 -1.5884 -1.3542
16504SOL     OW49689   1.044   3.926   3.099 -0.2287  0.1138 -0.1796
16504SOL    HW149690   0.947   3.908   3.081 -0.6004  1.4708  0.2589
16504SOL    HW249691   1.084   3.849   3.147 -1.2090 -0.3118 -0.0110
16505SOL     OW49692   7.875   7.607   7.341 -0.2532  0.6574  0.2697
16505SOL    HW149693   7.875   7.707   7.345 -2.1326  0.6380  1.9612
16505SOL    HW249694   7.781   7.574   7.336  0.1716 -1.0921  2.4867
16506SOL     OW49695   2.858   6.043   3.196  0.0634 -0.7681  0.5973
16506SOL    HW149696   2.820   6.013   3.108 -1.2768 -1.6142  1.4310
16506SOL    HW249697   2.944   6.091   3.180 -1.2732  1.1446 -1.3633
16507SOL     OW49698   3.141   5.704   1.132  0.2711  0.3713 -0.1936
16507SOL    HW149699   3.130   5.682   1.229 -1.9017 -0.1393 -0.5044
16507SOL    HW249700   3.130   5.621   1.077  0.9959  0.7366 -0.9149
16508SOL     OW49701   7.985   4.525   5.084 -0.0692 -0.0579  0.7262
16508SOL    HW149702   7.919   4.543   5.156 -0.3890  0.1836  0.3763
16508SOL    HW249703   7.994   4.606   5.026  0.6356 -0.0420  0.8531
16509SOL     OW49704   1.447   4.812   6.403 -0.3092 -0.2025 -0.5985
16509SOL    HW149705   1.463   4.764   6.317 -0.8956 -0.6843 -0.4528
16509SOL    HW249706   1.351   4.800   6.430 -0.8704  2.2373 -1.2572
16510SOL     OW49707   5.001   4.666   0.472  0.0015  0.0015 -0.2861
16510SOL    HW149708   4.921   4.717   0.440 -0.8083 -0.0874  1.4820
16510SOL    HW249709   4.974   4.574   0.497  1.1286 -0.7862 -1.7974
16511SOL     OW49710   0.218   6.037   5.868  0.5037  0.7659 -0.0820
16511SOL    HW149711   0.166   6.122   5.869  0.7000  0.8907 -0.2655
16511SOL    HW249712   0.247   6.017   5.775  0.6765  0.6338 -0.0003
16512SOL     OW49713   5.494   1.072   8.239  0.0358 -0.3634  0.3392
16512SOL    HW149714   5.533   0.988   8.201  1.9150  0.6275 -0.0434
16512SOL    HW249715   5.566   1.124   8.286 -0.8885  1.4274 -0.1393
16513SOL     OW49716   2.378   0.994   4.153 -0.0673 -0.2133  0.2723
16513SOL    HW149717   2.463   0.969   4.201 -0.9146 -0.2958  1.7966
16513SOL    HW249718   2.309   0.924   4.171 -0.5969  0.0703 -0.6148
16514SOL     OW49719   8.144   4.318   2.042  0.2491  0.6653 -0.6118
16514SOL    HW149720   8.196   4.395   2.079 -0.5358  1.6271 -1.4775
16514SOL    HW249721   8.052   4.318   2.081  0.0427  0.5284 -1.1019
16515SOL     OW49722   3.505   4.454   2.430 -0.4583 -0.0100  0.3808
16515SOL    HW149723   3.473   4.537   2.475 -2.7318  0.4040 -1.7554
16515SOL    HW249724   3.439   4.380   2.444  1.3486 -1.4570  1.9439
16516SOL     OW49725   6.811   5.171   2.230 -0.0789  0.6110 -0.4290
16516SOL    HW149726   6.741   5.125   2.176 -0.1153  0.7732 -0.5204
16516SOL    HW249727   6.778   5.185   2.323 -0.1698  0.6944 -0.4744
16517SOL     OW49728   6.417   1.203   5.779  0.5020 -0.2130  0.6117
16517SOL    HW149729   6.334   1.233   5.827  0.0825 -0.1525 -0.1324
16517SOL    HW249730   6.439   1.269   5.708 -0.8188 -1.9196 -1.5118
16518SOL     OW49731   7.042   1.128   4.334  0.2801  0.4040  0.1375
16518SOL    HW149732   7.007   1.086   4.250 -0.2198  0.8201  0.1361
16518SOL    HW249733   7.021   1.068   4.411 -1.4087  1.1215  0.2860
16519SOL     OW49734   4.142   7.890   8.293 -0.4030  0.0723  0.4294
16519SOL    HW149735   4.051   7.889   8.334 -0.8320  2.0393 -0.3823
16519SOL    HW249736   4.207   7.932   8.356 -0.3456 -0.0446  0.4486
16520SOL     OW49737   1.690   4.354   6.983  0.6252  0.1309  0.1183
16520SOL    HW149738   1.768   4.318   7.033  0.7832 -0.7885 -0.7438
16520SOL    HW249739   1.608   4.302   7.008  0.5864  0.0933 -0.0780
16521SOL     OW49740   8.662   1.293   8.215  0.1941  0.4173 -0.2430
16521SOL    HW149741   8.579   1.242   8.192 -2.1751  3.3038  1.2301
16521SOL    HW249742   8.741   1.248   8.173 -2.0478 -2.4576 -1.7788
16522SOL     OW49743   7.069   1.345   4.477 -0.0511 -0.0929 -0.6144
16522SOL    HW149744   7.063   1.269   4.413 -1.7409 -0.3749 -0.1821
16522SOL    HW249745   6.996   1.410   4.458  1.9279  1.9626 -1.5839
16523SOL     OW49746   2.082   8.789   2.856 -0.4003 -0.3362 -0.4336
16523SOL    HW149747   2.122   8.739   2.933 -2.6835 -1.0594  0.3807
16523SOL    HW249748   2.052   8.724   2.786 -0.3479  0.1586 -0.9210
16524SOL     OW49749   0.566   4.876   4.408  0.2623 -0.2888  0.0241
16524SOL    HW149750   0.551   4.975   4.400  2.0477 -0.1147 -2.5049
16524SOL    HW249751   0.517   4.830   4.334 -0.0824 -1.2773  0.8443
16525SOL     OW49752   5.655   8.205   5.711 -0.7646  0.1184 -0.3063
16525SOL    HW149753   5.752   8.180   5.714 -0.7748 -0.2064 -1.8152
16525SOL    HW249754   5.642   8.281   5.647 -1.2844  1.3961  1.2357
16526SOL     OW49755   1.206   7.329   2.313 -0.2595 -0.7512  0.1902
16526SOL    HW149756   1.282   7.290   2.364  1.2325 -0.0509 -1.3984
16526SOL    HW249757   1.219   7.428   2.302 -1.6148 -0.5404  0.2079
16527SOL     OW49758   4.951   1.179   6.016 -0.3815  0.5807 -0.0001
16527SOL    HW149759   5.001   1.111   5.963 -0.5503  0.1131  0.4348
16527SOL    HW249760   5.015   1.239   6.063 -0.2042 -0.2833  0.9002
16528SOL     OW49761   6.017   0.107   4.634  0.2789 -0.1603 -0.1101
16528SOL    HW149762   6.085   0.064   4.574  1.2080 -1.2019  1.6035
16528SOL    HW249763   6.010   0.054   4.718 -1.8382  0.6089  0.2365
16529SOL     OW49764   4.212   0.924   2.597  0.3030  0.3572  0.3819
16529SOL    HW149765   4.150   1.001   2.579 -1.8296 -1.7895 -2.3912
16529SOL    HW249766   4.270   0.909   2.517  0.0880 -1.3740  0.5105
16530SOL     OW49767   1.570   2.440   0.464 -0.3860 -0.5463 -0.7301
16530SOL    HW149768   1.490   2.381   0.471 -0.9111  0.1590 -0.6585
16530SOL    HW249769   1.653   2.384   0.464 -0.7404 -1.1724  1.5658
16531SOL     OW49770   8.753   6.517   7.260  0.7407 -0.0408  0.1701
16531SOL    HW149771   8.814   6.592   7.235  1.0474 -0.4635 -0.3599
16531SOL    HW249772   8.806   6.435   7.279  0.3934 -0.1764  0.5764
16532SOL     OW49773   1.415   6.775   6.613  0.9134  0.0008 -0.0493
16532SOL    HW149774   1.472   6.823   6.546 -0.7814 -0.2559 -1.7511
16532SOL    HW249775   1.372   6.696   6.569  0.1834 -0.4941  1.5130
16533SOL     OW49776   2.815   2.255   0.434  0.6541 -0.5315  0.4467
16533SOL    HW149777   2.894   2.284   0.488  0.9807 -0.1244 -0.2315
16533SOL    HW249778   2.734   2.249   0.492  0.6093  1.5956  0.6561
16534SOL     OW49779   3.218   5.247   8.508  0.0958  0.5274 -0.5511
16534SOL    HW149780   3.248   5.253   8.603  0.9331  1.7860 -0.8711
16534SOL    HW249781   3.276   5.183   8.458 -0.0984  0.1657 -0.3231
16535SOL     OW49782   0.667   3.350   8.507  0.4746 -0.4905  0.3588
16535SOL    HW149783   0.750   3.306   8.472  0.3545 -0.8021  0.4663
16535SOL    HW249784   0.692   3.410   8.584  0.5328 -1.0014  0.7454
16536SOL     OW49785   0.360   7.194   4.798 -0.3616 -0.0589  0.2895
16536SOL    HW149786   0.356   7.100   4.763  0.3962 -0.2555  0.7057
16536SOL    HW249787   0.329   7.257   4.727  1.8797 -0.3821 -1.0750
16537SOL     OW49788   1.118   1.436   6.503 -0.2861 -0.3464 -0.1846
16537SOL    HW149789   1.076   1.375   6.570 -0.7298  1.1895  0.9930
16537SOL    HW249790   1.089   1.530   6.520  2.3459  0.5877 -0.3495
16538SOL     OW49791   5.283   3.423   7.609  0.3730 -0.0680  0.0027
16538SOL    HW149792   5.299   3.370   7.526 -0.6407  0.5196 -0.5945
16538SOL    HW249793   5.280   3.361   7.687  0.0624 -0.7955 -0.5684
16539SOL     OW49794   6.253   6.784   3.685  0.3462 -0.2804 -0.6854
16539SOL    HW149795   6.190   6.738   3.622 -0.8926 -1.6760  1.4564
16539SOL    HW249796   6.295   6.717   3.746  1.2305  1.0471  0.2312
16540SOL     OW49797   7.589   7.626   2.975 -0.3535 -0.4062 -0.2251
16540SOL    HW149798   7.618   7.686   2.900 -2.0772  1.0120  0.1566
16540SOL    HW249799   7.622   7.534   2.959  2.3034  0.5783 -0.9351
16541SOL     OW49800   0.200   4.927   5.833  1.3565  0.1615 -0.3000
16541SOL    HW149801   0.259   5.002   5.863 -1.6926  2.3944  0.5292
16541SOL    HW249802   0.149   4.956   5.752 -1.1368 -0.2939  1.0249
16542SOL     OW49803   4.845   8.082   4.137 -0.8487  0.2512 -0.1714
16542SOL    HW149804   4.859   8.092   4.235 -1.5744  3.3202 -0.2900
16542SOL    HW249805   4.748   8.091   4.115 -0.7254 -0.5889 -1.2020
16543SOL     OW49806   6.064   1.090   3.619 -0.7754 -0.1817 -0.6726
16543SOL    HW149807   6.073   1.033   3.538 -1.5269 -1.5784  0.1937
16543SOL    HW249808   6.030   1.181   3.593 -2.0953 -0.9641 -1.8152
16544SOL     OW49809   0.327   6.470   4.033  0.1922 -0.4509 -0.2822
16544SOL    HW149810   0.247   6.463   3.973  0.1822  1.4696 -0.5520
16544SOL    HW249811   0.338   6.564   4.064  1.3303 -1.0285  1.2031
16545SOL     OW49812   0.567   5.257   7.671 -0.2178  0.2742  0.1133
16545SOL    HW149813   0.547   5.160   7.656  1.5273 -0.1341  0.1473
16545SOL    HW249814   0.578   5.274   7.768  0.1261  0.3575  0.0604
16546SOL     OW49815   0.003   8.135   3.674  0.3043 -0.4092  0.7084
16546SOL    HW149816   0.040   8.135   3.581 -0.1129 -1.5475  0.5250
16546SOL    HW249817   0.053   8.201   3.730  1.7281 -0.9648  0.1233
16547SOL     OW49818   7.759   2.860   0.134 -0.3882 -0.3310  0.6970
16547SOL    HW149819   7.738   2.785   0.071 -1.1334  0.6555 -0.2753
16547SOL    HW249820   7.748   2.829   0.228 -0.7114 -1.4249  0.3109
16548SOL     OW49821   5.416   5.592   4.072 -0.0334  0.1011 -0.2909
16548SOL    HW149822   5.478   5.671   4.074 -0.1897  0.2276 -0.4116
16548SOL    HW249823   5.362   5.590   4.157 -0.2308  0.2882 -0.4090
16549SOL     OW49824   0.350   0.750   5.614  0.2274  0.0090 -0.2848
16549SOL    HW149825   0.370   0.746   5.517 -0.6673  1.0086 -0.5278
16549SOL    HW249826   0.429   0.716   5.666  0.3867 -1.3806 -1.3624
16550SOL     OW49827   4.314   7.012   6.088 -0.1300 -0.7096  0.0730
16550SOL    HW149828   4.398   6.991   6.138  0.0123  0.5135  0.3769
16550SOL    HW249829   4.332   7.086   6.023 -1.2114  0.3226  0.9124
16551SOL     OW49830   5.913   3.338   6.696 -0.4349  0.0793  0.4277
16551SOL    HW149831   5.853   3.275   6.646 -0.8716  0.7582  0.0836
16551SOL    HW249832   6.002   3.340   6.651 -0.5828  0.1031  0.1283
16552SOL     OW49833   6.324   6.429   2.998 -0.1019  0.6521  0.1361
16552SOL    HW149834   6.392   6.426   2.925  0.7950 -0.9147  0.9877
16552SOL    HW249835   6.346   6.360   3.067 -1.3899  1.5327  1.4838
16553SOL     OW49836   3.912   4.948   6.916 -0.0831 -0.3409 -0.0889
16553SOL    HW149837   3.957   5.036   6.901  0.1173 -0.4735 -0.2625
16553SOL    HW249838   3.903   4.900   6.829 -0.4397 -0.3733 -0.0355
16554SOL     OW49839   8.763   8.048   4.620  0.3250  0.1493  0.7339
16554SOL    HW149840   8.808   8.054   4.531 -0.4395 -0.9596  0.2429
16554SOL    HW249841   8.733   8.139   4.648 -2.0039  0.2466 -1.5572
16555SOL     OW49842   7.390   2.678   8.657  0.3755 -0.4101 -0.5655
16555SOL    HW149843   7.450   2.688   8.578  0.2029  0.1434 -0.6288
16555SOL    HW249844   7.341   2.764   8.674  1.5599 -0.0169  1.0775
16556SOL     OW49845   7.064   4.156   2.064 -0.1022  0.6517  0.0342
16556SOL    HW149846   7.123   4.114   1.994  0.0324 -2.3415  1.7765
16556SOL    HW249847   6.969   4.152   2.033 -0.0650 -0.7987  0.0453
16557SOL     OW49848   4.772   5.156   4.857  0.4878  0.4896  0.3059
16557SOL    HW149849   4.746   5.240   4.808  1.7247  0.3196 -0.7094
16557SOL    HW249850   4.833   5.180   4.933  0.7101  0.5405  0.1155
16558SOL     OW49851   7.943   1.767   4.021  0.1950  0.2074  0.0096
16558SOL    HW149852   7.952   1.669   4.039 -1.8849 -0.2110 -0.8982
16558SOL    HW249853   8.022   1.815   4.059 -1.4859 -0.9855  6.3680
16559SOL     OW49854   8.217   3.400   8.750  0.0908 -0.2348  0.5822
16559SOL    HW149855   8.260   3.310   8.759 -0.8432 -0.6295  1.1570
16559SOL    HW249856   8.199   3.438   8.840  0.4637  0.5438  0.3462
16560SOL     OW49857   1.594   0.706   2.487  0.0744 -0.0542 -0.4734
16560SOL    HW149858   1.540   0.776   2.441 -0.3929 -0.5141 -0.6317
16560SOL    HW249859   1.662   0.669   2.424  0.7863  0.7280 -0.1904
16561SOL     OW49860   3.577   2.636   3.956  0.3742 -0.4896  0.0513
16561SOL    HW149861   3.676   2.647   3.950  0.5549 -1.6745  0.6151
16561SOL    HW249862   3.549   2.627   4.052 -0.6586  2.7270  0.1837
16562SOL     OW49863   8.730   2.299   7.548  0.2132 -0.0979 -0.2583
16562SOL    HW149864   8.763   2.282   7.455 -1.7878 -1.0038 -0.8670
16562SOL    HW249865   8.714   2.211   7.594 -1.0482  0.2910  0.0811
16563SOL     OW49866   6.923   2.878   5.321 -0.1744 -0.1264  0.2724
16563SOL    HW149867   6.973   2.938   5.259 -1.2415 -0.2250 -0.7240
16563SOL    HW249868   6.913   2.788   5.280  0.1563 -0.5684  1.1314
16564SOL     OW49869   2.055   0.084   1.268  0.2346 -0.0339 -0.2079
16564SOL    HW149870   2.139   0.069   1.320  0.7518  0.9498 -0.7455
16564SOL    HW249871   1.996   0.148   1.318 -0.9179 -1.8604  0.9213
16565SOL     OW49872   3.514   1.860   6.230 -0.3412 -0.2322  0.0710
16565SOL    HW149873   3.446   1.800   6.273 -0.2228  0.0345  0.6345
16565SOL    HW249874   3.494   1.868   6.132  0.6821 -2.6711 -0.4213
16566SOL     OW49875   4.986   2.647   2.639  0.5174 -0.1587 -0.0655
16566SOL    HW149876   4.917   2.575   2.645 -0.6569  0.8396 -0.8660
16566SOL    HW249877   5.021   2.652   2.545 -1.4185  2.0022 -0.7814
16567SOL     OW49878   1.730   1.660   4.230  0.1949 -0.1006  0.0972
16567SOL    HW149879   1.812   1.637   4.283  0.7850  1.7567  0.0487
16567SOL    HW249880   1.673   1.578   4.220  2.5492 -1.7522 -0.8219
16568SOL     OW49881   2.136   0.472   0.161 -0.0285  0.3981 -0.1322
16568SOL    HW149882   2.055   0.523   0.130 -0.5294  1.1647  2.2294
16568SOL    HW249883   2.142   0.476   0.261  1.5920 -1.7393 -0.0691
16569SOL     OW49884   8.065   3.438   4.093  0.1709 -0.5255 -0.4565
16569SOL    HW149885   8.143   3.462   4.150 -0.0173 -1.0100  0.0112
16569SOL    HW249886   7.994   3.397   4.150  0.6102 -2.5217 -1.2810
16570SOL     OW49887   1.670   2.119   3.501 -0.0086 -0.0284  0.2578
16570SOL    HW149888   1.761   2.087   3.528 -0.2421 -0.0512  1.0209
16570SOL    HW249889   1.603   2.046   3.515 -0.3101  0.3196  0.6395
16571SOL     OW49890   6.065   5.073   0.308  0.0190 -0.0804 -0.0687
16571SOL    HW149891   6.070   5.132   0.227 -0.9500  1.3364  0.8499
16571SOL    HW249892   6.157   5.055   0.342  0.3563  0.5623 -0.6175
16572SOL     OW49893   7.586   1.870   8.417  0.1066  0.2942  0.4777
16572SOL    HW149894   7.648   1.853   8.494  0.8961 -0.2169 -0.2498
16572SOL    HW249895   7.614   1.954   8.371  0.2117  0.1024  0.1927
16573SOL     OW49896   3.921   1.404   0.958  0.6113 -0.0125 -0.4847
16573SOL    HW149897   3.941   1.458   0.876  1.8726 -2.0414 -1.5937
16573SOL    HW249898   3.863   1.457   1.019 -0.1905  1.6617 -2.5690
16574SOL     OW49899   2.504   2.265   7.503  0.8283 -0.3047 -0.0729
16574SOL    HW149900   2.445   2.235   7.429  2.4106 -1.3327 -0.9730
16574SOL    HW249901   2.545   2.354   7.481 -0.1788  0.3100  0.4608
16575SOL     OW49902   3.602   5.654   5.155 -0.0789 -0.4038 -0.1579
16575SOL    HW149903   3.625   5.651   5.252 -1.4428 -0.0921  0.1864
16575SOL    HW249904   3.519   5.707   5.141 -0.8276 -1.7916 -1.3131
16576SOL     OW49905   5.031   4.357   4.604 -0.3480 -0.0032  0.2056
16576SOL    HW149906   5.046   4.288   4.674  2.0978 -1.5134 -1.6618
16576SOL    HW249907   5.029   4.448   4.646  1.9289 -0.7697  2.1492
16577SOL     OW49908   7.406   7.123   6.740 -0.8305 -0.0513 -0.5818
16577SOL    HW149909   7.346   7.129   6.820  0.5698 -1.4313  0.6436
16577SOL    HW249910   7.400   7.208   6.686 -0.7599  1.5324  1.7610
16578SOL     OW49911   5.513   6.111   2.880  0.0837 -0.4505  0.0682
16578SOL    HW149912   5.431   6.132   2.827  0.3513  0.9727  0.1900
16578SOL    HW249913   5.591   6.161   2.843  0.4067  0.0732  1.3925
16579SOL     OW49914   8.143   4.722   2.440  0.6707 -0.0992  0.7025
16579SOL    HW149915   8.142   4.622   2.444 -0.1915 -0.0679  1.4825
16579SOL    HW249916   8.238   4.755   2.441  0.9847 -0.9288 -0.3959
16580SOL     OW49917   7.995   1.769   6.050  0.0093 -0.1182 -0.7333
16580SOL    HW149918   7.905   1.763   6.007 -0.0055 -0.6811 -0.6326
16580SOL    HW249919   8.057   1.822   5.992 -0.7425  1.4013 -0.1980
16581SOL     OW49920   0.161   7.273   1.230 -0.7868  0.7990 -0.0814
16581SOL    HW149921   0.108   7.208   1.285 -0.3227  0.5938  0.1319
16581SOL    HW249922   0.236   7.309   1.285 -0.5588  0.8980 -0.4568
16582SOL     OW49923   0.493   2.205   4.792 -0.4645  0.1061 -0.2475
16582SOL    HW149924   0.485   2.233   4.697  0.9054 -1.5710 -0.9014
16582SOL    HW249925   0.455   2.113   4.803  1.4518 -0.6524  0.3040
16583SOL     OW49926   1.768   3.715   3.731  0.3203  0.0708  0.1220
16583SOL    HW149927   1.739   3.687   3.822  1.5175  0.7913  0.7577
16583SOL    HW249928   1.772   3.636   3.671 -2.2160 -0.1651  0.1666
16584SOL     OW49929   1.448   3.835   1.985  0.1946  0.7977 -0.7192
16584SOL    HW149930   1.421   3.752   2.033  0.8099  1.3253  0.5822
16584SOL    HW249931   1.545   3.830   1.962  0.2057  1.1029 -0.7408
16585SOL     OW49932   5.522   6.810   4.882  0.5349  0.0218 -0.0975
16585SOL    HW149933   5.481   6.889   4.836  1.0611  0.5237  0.2836
16585SOL    HW249934   5.592   6.841   4.947  0.9658 -0.7694 -0.1618
16586SOL     OW49935   3.570   4.996   7.194  0.1433 -0.2148  0.0989
16586SOL    HW149936   3.659   4.955   7.179  0.9895  1.1080  1.2333
16586SOL    HW249937   3.581   5.091   7.224 -1.6156 -0.1952  0.8425
16587SOL     OW49938   7.022   1.540   6.081 -0.2582 -0.2039  0.0633
16587SOL    HW149939   6.932   1.497   6.078 -0.9123  1.1487 -1.5323
16587SOL    HW249940   7.087   1.485   6.029 -1.0937  0.6240 -1.9839
16588SOL     OW49941   5.523   6.068   4.021  0.3862 -0.4773 -0.2100
16588SOL    HW149942   5.565   6.111   4.101  0.6879 -0.6665 -0.2652
16588SOL    HW249943   5.530   6.130   3.942 -1.2483  0.3608  0.2435
16589SOL     OW49944   3.773   8.851   1.815 -0.1477  0.4203  0.2990
16589SOL    HW149945   3.857   8.891   1.851 -0.2175  0.6063  0.2604
16589SOL    HW249946   3.702   8.855   1.885 -0.1387  0.3084  0.3150
16590SOL     OW49947   4.058   5.928   2.021 -0.1255 -0.6070  0.0487
16590SOL    HW149948   4.057   5.878   1.934 -2.5252 -1.9463  0.7580
16590SOL    HW249949   4.014   6.017   2.009  0.6087 -0.2947 -0.3559
16591SOL     OW49950   8.130   0.907   1.254 -0.0098 -0.2093 -0.2968
16591SOL    HW149951   8.072   0.903   1.335 -0.9192  1.2126 -0.8477
16591SOL    HW249952   8.153   0.814   1.225  0.4585 -0.7407  1.6513
16592SOL     OW49953   4.034   8.353   7.356  0.1107 -0.5036 -0.2577
16592SOL    HW149954   3.939   8.372   7.380  0.0200  0.2092 -1.1418
16592SOL    HW249955   4.070   8.281   7.415  0.4345  2.2909  3.3427
16593SOL     OW49956   8.200   7.579   4.505  0.1744 -0.1071 -0.0344
16593SOL    HW149957   8.243   7.509   4.562  1.5866 -0.8570 -1.9271
16593SOL    HW249958   8.200   7.550   4.410 -0.6717  1.7913 -0.6690
16594SOL     OW49959   5.847   3.096   6.258 -0.1862 -0.1848 -0.6397
16594SOL    HW149960   5.919   3.165   6.263 -0.2826 -0.1641  1.0031
16594SOL    HW249961   5.889   3.005   6.262 -0.1760 -0.1938 -0.9445
16595SOL     OW49962   4.605   1.986   3.835 -0.4703  0.1719 -0.1692
16595SOL    HW149963   4.639   2.038   3.913 -1.3069  0.0288  0.3091
16595SOL    HW249964   4.509   1.962   3.850 -0.0413 -1.7429 -0.2374
16596SOL     OW49965   0.561   3.134   6.880  0.0665 -0.1802  0.5033
16596SOL    HW149966   0.644   3.188   6.896  0.4147 -0.6452  0.2872
16596SOL    HW249967   0.577   3.039   6.907 -0.5973 -0.1487  1.0366
16597SOL     OW49968   5.064   3.375   0.752 -0.2656 -0.2161 -0.3229
16597SOL    HW149969   5.104   3.458   0.714 -0.8830  0.3746  0.2838
16597SOL    HW249970   5.036   3.391   0.847 -0.4364 -1.0988 -0.2126
16598SOL     OW49971   1.029   8.687   2.890  0.1569 -0.0556 -0.0565
16598SOL    HW149972   1.097   8.678   2.962 -0.3896  0.4363  0.5315
16598SOL    HW249973   0.992   8.597   2.868  1.1055 -0.3562 -0.5092
16599SOL     OW49974   0.364   4.447   8.450  0.2739 -0.6688 -0.3934
16599SOL    HW149975   0.455   4.476   8.422  0.1289  0.4503  0.2733
16599SOL    HW249976   0.345   4.357   8.410  0.9844 -0.1635 -1.9718
16600SOL     OW49977   1.797   4.522   1.535  0.0184 -0.0986  0.5180
16600SOL    HW149978   1.804   4.476   1.447 -0.6202  1.0381 -0.1532
16600SOL    HW249979   1.723   4.480   1.589 -0.3108 -0.1043  0.0682
16601SOL     OW49980   6.290   0.783   2.819  0.2600  0.5656  0.0502
16601SOL    HW149981   6.211   0.829   2.778 -1.5427 -0.4996  2.0718
16601SOL    HW249982   6.303   0.816   2.913 -0.0486 -1.7301  0.9759
16602SOL     OW49983   3.857   4.017   7.709 -0.3232 -0.5121 -0.4339
16602SOL    HW149984   3.903   3.990   7.624  1.0649 -1.1676  0.5075
16602SOL    HW249985   3.921   4.066   7.768 -1.0518 -0.7504  0.5750
16603SOL     OW49986   6.277   7.488   7.459 -0.2792  0.6272  0.8047
16603SOL    HW149987   6.297   7.462   7.364  1.0355 -0.5513  1.3520
16603SOL    HW249988   6.314   7.418   7.520 -3.5215 -0.0786  2.1289
16604SOL     OW49989   3.678   0.954   5.230  0.7451 -0.6653 -0.4152
16604SOL    HW149990   3.606   0.956   5.161  2.1396  0.5260 -1.9306
16604SOL    HW249991   3.686   1.044   5.272  1.2575 -0.8311 -0.1522
16605SOL     OW49992   7.359   8.224   4.839  0.4852 -0.0206 -0.4528
16605SOL    HW149993   7.305   8.140   4.839  1.1803 -0.4870 -1.1251
16605SOL    HW249994   7.335   8.279   4.759  0.1715  0.3365 -0.1177
16606SOL     OW49995   8.033   3.772   8.495  0.2843 -0.6499 -0.2262
16606SOL    HW149996   8.089   3.707   8.545 -0.3935  0.3707  1.9868
16606SOL    HW249997   7.947   3.730   8.469  0.6657 -1.2014 -0.6309
16607SOL     OW49998   0.827   2.192   5.312 -0.5401 -0.8274  0.6279
16607SOL    HW149999   0.804   2.198   5.409  1.5527 -3.7696  1.4500
16607SOL    HW250000   0.761   2.132   5.266 -1.0248 -0.1266  0.3892
16608SOL     OW50001   2.144   4.392   1.965 -0.3679 -0.1429  0.1923
16608SOL    HW150002   2.195   4.406   2.050  0.4697 -2.6431  0.1699
16608SOL    HW250003   2.049   4.372   1.985 -0.0949 -1.0669  0.5674
16609SOL     OW50004   0.821   6.889   4.007  0.0931 -0.2072 -0.2672
16609SOL    HW150005   0.890   6.948   4.048  0.3356  0.9262 -2.1590
16609SOL    HW250006   0.859   6.798   3.992  0.0874 -0.5572  1.6447
16610SOL     OW50007   3.972   3.225   8.360  0.8346  0.2263 -0.3401
16610SOL    HW150008   4.023   3.296   8.409  0.8346  0.1171 -0.1841
16610SOL    HW250009   3.874   3.240   8.372  0.8372 -0.1538  0.1997
16611SOL     OW50010   3.245   0.602   5.513 -0.2074 -0.3334  0.2230
16611SOL    HW150011   3.329   0.560   5.547 -1.4765 -0.8871  2.9689
16611SOL    HW250012   3.166   0.562   5.560 -1.8710  1.6587 -0.6927
16612SOL     OW50013   1.092   3.452   2.539 -0.3359  0.1791 -0.3624
16612SOL    HW150014   1.138   3.399   2.468  1.0556 -0.4242  0.9122
16612SOL    HW250015   0.994   3.436   2.535 -0.2466 -0.1355 -1.8841
16613SOL     OW50016   7.265   2.640   0.145 -0.0135 -0.2698 -0.0230
16613SOL    HW150017   7.236   2.548   0.121 -1.9171  0.4162 -0.5535
16613SOL    HW250018   7.354   2.660   0.103  0.6599 -1.9903  0.5127
16614SOL     OW50019   7.070   0.589   5.234 -0.4148 -0.2773  0.1703
16614SOL    HW150020   7.049   0.497   5.203 -0.9372 -0.2519  0.4275
16614SOL    HW250021   7.149   0.587   5.295 -0.5084 -0.5739  0.2825
16615SOL     OW50022   1.785   0.305   1.031  0.1771  0.6901  0.3252
16615SOL    HW150023   1.854   0.234   1.013 -0.9344 -0.1018 -1.0073
16615SOL    HW250024   1.725   0.275   1.105 -0.9944 -0.3521 -0.9780
16616SOL     OW50025   6.998   3.404   8.207 -0.0215 -0.4214 -0.1360
16616SOL    HW150026   6.934   3.381   8.280 -0.9471  1.9901 -0.1039
16616SOL    HW250027   6.982   3.344   8.128 -0.3710 -1.7078  0.8751
16617SOL     OW50028   1.000   8.526   1.939 -0.0365 -0.6018 -0.3704
16617SOL    HW150029   1.100   8.531   1.936  0.2105 -0.9993  2.8840
16617SOL    HW250030   0.963   8.618   1.928  0.7492 -0.3110 -0.6925
16618SOL     OW50031   6.551   7.336   5.824 -0.1082 -0.1283 -0.6919
16618SOL    HW150032   6.584   7.294   5.908  0.0232  1.4451  0.0919
16618SOL    HW250033   6.627   7.384   5.778  0.1244 -1.9977 -2.4235
16619SOL     OW50034   7.620   4.197   1.449 -0.7376 -0.4270  0.6066
16619SOL    HW150035   7.659   4.197   1.541 -0.8898  0.7087  0.6825
16619SOL    HW250036   7.651   4.279   1.400 -1.5220 -0.4751  0.0175
16620SOL     OW50037   2.143   0.476   1.210 -0.0855 -0.3567  0.6373
16620SOL    HW150038   2.078   0.452   1.138  0.3999  0.1866  0.0088
16620SOL    HW250039   2.148   0.575   1.220 -0.0719 -0.4223  1.3599
16621SOL     OW50040   0.601   2.010   3.255 -0.3734 -0.3307 -0.1527
16621SOL    HW150041   0.508   2.047   3.252 -0.6738 -1.0727 -0.2940
16621SOL    HW250042   0.597   1.912   3.276  0.4307 -0.1781  0.7593
16622SOL     OW50043   3.135   2.757   7.348 -0.4292 -0.3389  0.0233
16622SOL    HW150044   3.145   2.780   7.445 -2.0953 -1.4171  0.5000
16622SOL    HW250045   3.053   2.801   7.312 -0.1289 -0.4029 -0.7562
16623SOL     OW50046   5.966   1.216   6.397  0.3921  0.3470  0.1033
16623SOL    HW150047   5.898   1.282   6.365  0.4808 -0.8541 -2.9878
16623SOL    HW250048   5.924   1.125   6.399  1.3668 -0.1049  0.1339
16624SOL     OW50049   5.866   8.528   6.117 -0.3218  0.1922 -0.0121
16624SOL    HW150050   5.963   8.509   6.131 -0.5065 -0.3641  0.5624
16624SOL    HW250051   5.811   8.471   6.178 -0.9891  0.9474  0.1175
16625SOL     OW50052   2.913   1.350   1.007 -0.1187  0.0134  0.0338
16625SOL    HW150053   2.988   1.411   1.031 -0.4284  0.0607  0.9027
16625SOL    HW250054   2.945   1.284   0.938  0.9752 -0.4987  0.9996
16626SOL     OW50055   6.814   2.533   2.003 -0.3803 -0.3304  0.1902
16626SOL    HW150056   6.910   2.561   1.997 -1.4304  3.3757 -3.4289
16626SOL    HW250057   6.797   2.457   1.941 -0.4046  1.8468 -2.6953
16627SOL     OW50058   1.712   0.396   7.050  0.4718  0.3708 -0.4757
16627SOL    HW150059   1.714   0.409   7.149  0.0370 -0.0331 -0.4128
16627SOL    HW250060   1.691   0.483   7.005 -0.6418  0.2860 -0.1442
16628SOL     OW50061   6.708   1.420   2.238  0.3887  0.1462 -0.1162
16628SOL    HW150062   6.800   1.381   2.246  0.4556  0.3888  0.3691
16628SOL    HW250063   6.645   1.370   2.297  0.3261  0.3214 -0.0316
16629SOL     OW50064   3.329   1.375   5.478  0.2357  0.7188  0.2082
16629SOL    HW150065   3.399   1.395   5.546  1.1304 -1.8150  0.1483
16629SOL    HW250066   3.245   1.425   5.500  0.3865 -0.2393  3.4094
16630SOL     OW50067   2.234   8.229   6.383  0.1252  0.0133 -0.8413
16630SOL    HW150068   2.235   8.327   6.366  0.6618 -0.1036 -1.5381
16630SOL    HW250069   2.256   8.212   6.479 -0.1178  0.5776 -0.6840
16631SOL     OW50070   0.605   5.615   1.040  0.3005 -0.3932 -0.1973
16631SOL    HW150071   0.653   5.564   1.111  0.9053  0.5869  0.1150
16631SOL    HW250072   0.669   5.676   0.993 -0.3213 -0.2188 -0.8387
16632SOL     OW50073   6.415   0.622   2.631  0.7824 -0.0131 -0.1432
16632SOL    HW150074   6.371   0.693   2.686 -0.0278 -0.8212  0.2750
16632SOL    HW250075   6.476   0.568   2.689 -1.0905 -1.7270  0.3412
16633SOL     OW50076   6.181   3.349   8.460 -0.1520 -1.1685 -0.1110
16633SOL    HW150077   6.128   3.434   8.453  0.0706 -1.0658 -0.6547
16633SOL    HW250078   6.271   3.363   8.419  1.2209 -0.6373  2.8184
16634SOL     OW50079   4.392   6.862   0.457  0.6274 -0.3295 -0.1272
16634SOL    HW150080   4.416   6.877   0.361 -0.3037 -0.1249 -0.3330
16634SOL    HW250081   4.365   6.948   0.499  3.2471  0.0516  0.9947
16635SOL     OW50082   4.452   8.749   2.699 -0.0636 -0.3084 -0.5129
16635SOL    HW150083   4.509   8.831   2.698  0.3435 -0.5672  0.2192
16635SOL    HW250084   4.357   8.774   2.715 -0.2811  0.1782 -2.3580
16636SOL     OW50085   6.364   0.105   4.318  0.1659  0.0284 -0.0321
16636SOL    HW150086   6.340   0.189   4.367 -0.3532 -0.0991 -0.0622
16636SOL    HW250087   6.292   0.083   4.253  0.5843 -0.1187 -0.4466
16637SOL     OW50088   4.442   1.589   4.479  0.4131 -0.5347  0.3063
16637SOL    HW150089   4.472   1.495   4.493  0.0125 -0.6520  0.3761
16637SOL    HW250090   4.520   1.645   4.449  0.0671 -1.5028 -2.7446
16638SOL     OW50091   8.828   3.732   0.743  0.2953 -0.5322 -0.3867
16638SOL    HW150092   8.754   3.667   0.723  0.6326 -1.3668  0.9697
16638SOL    HW250093   8.789   3.824   0.754 -0.2811 -0.6103 -1.5595
16639SOL     OW50094   4.244   1.183   1.790  0.0897 -0.5437  0.2526
16639SOL    HW150095   4.234   1.235   1.705 -0.5484  1.0268  1.2517
16639SOL    HW250096   4.316   1.224   1.846  0.8105 -1.8318  0.3171
16640SOL     OW50097   8.312   7.822   7.082  0.1166  0.1418  0.0290
16640SOL    HW150098   8.400   7.774   7.081  0.5133  0.7747  1.8652
16640SOL    HW250099   8.268   7.809   7.170 -0.4468  1.9312  0.0436
16641SOL     OW50100   5.034   5.484   2.483 -0.1056 -0.7047 -0.3504
16641SOL    HW150101   5.016   5.505   2.579 -4.7236 -3.0510 -0.3789
16641SOL    HW250102   5.009   5.562   2.426 -0.3415 -0.3406  0.2434
16642SOL     OW50103   5.070   6.928   5.678  0.4626  0.1615 -0.0125
16642SOL    HW150104   5.121   7.011   5.654  0.5107 -0.4766 -2.3377
16642SOL    HW250105   5.134   6.858   5.709  0.5088  0.6899  1.1388
16643SOL     OW50106   2.549   5.760   7.939  0.0873  0.2454 -0.2475
16643SOL    HW150107   2.598   5.758   7.852  0.4557 -1.2488 -0.0231
16643SOL    HW250108   2.482   5.835   7.938 -0.5147 -0.2754 -2.1171
16644SOL     OW50109   6.403   8.585   0.797  0.0310 -0.1920 -0.3408
16644SOL    HW150110   6.465   8.579   0.874 -1.5047  1.7696  1.1688
16644SOL    HW250111   6.372   8.679   0.786 -1.6868 -0.8592 -1.8222
16645SOL     OW50112   4.451   5.341   2.531  0.0454  0.0868 -0.3620
16645SOL    HW150113   4.523   5.387   2.479  3.6490 -1.0572  3.1937
16645SOL    HW250114   4.410   5.405   2.595  0.8867 -0.2347  0.5061
16646SOL     OW50115   3.887   0.356   2.527  0.0929  0.3533  0.4180
16646SOL    HW150116   3.892   0.258   2.545  1.9722  0.4073  0.4041
16646SOL    HW250117   3.799   0.378   2.484 -0.2709 -1.3367  0.2323
16647SOL     OW50118   2.273   1.689   2.839 -0.1813  0.3249  0.2730
16647SOL    HW150119   2.182   1.647   2.835 -0.7193  1.4655 -3.7231
16647SOL    HW250120   2.336   1.627   2.886 -2.4097 -1.6779  0.8521
16648SOL     OW50121   4.749   1.758   0.242 -0.4267 -0.1134 -0.3261
16648SOL    HW150122   4.751   1.798   0.151  0.3866  1.8742  0.4910
16648SOL    HW250123   4.711   1.825   0.306 -1.2334 -1.5606  0.7646
16649SOL     OW50124   2.794   2.677   3.765  0.2703 -0.4563 -0.3263
16649SOL    HW150125   2.709   2.657   3.814 -1.4867  1.6706 -2.2791
16649SOL    HW250126   2.810   2.776   3.765  0.9756 -0.5048 -2.6931
16650SOL     OW50127   5.298   2.431   4.065  0.1499 -0.0893 -0.0235
16650SOL    HW150128   5.347   2.486   4.133  0.3412  0.1836 -0.3778
16650SOL    HW250129   5.299   2.335   4.092  3.4161 -0.5969 -1.4198
16651SOL     OW50130   7.573   6.054   8.577 -0.3636  0.0255  0.4389
16651SOL    HW150131   7.551   6.132   8.635  0.0012 -0.2285  0.9256
16651SOL    HW250132   7.554   6.077   8.481  1.8164  1.5275  0.2972
16652SOL     OW50133   5.882   1.894   2.427  0.3047  0.1096  0.4867
16652SOL    HW150134   5.852   1.799   2.439  0.5350  0.1243  1.2960
16652SOL    HW250135   5.980   1.900   2.446  0.6051  0.2618 -1.0018
16653SOL     OW50136   8.381   2.587   8.533  0.2026  0.2590 -0.1743
16653SOL    HW150137   8.460   2.555   8.481  0.4723 -0.8648  0.8910
16653SOL    HW250138   8.303   2.599   8.472  0.4298 -1.3061 -0.8133
16654SOL     OW50139   6.568   0.204   3.521 -0.0059  0.2082 -0.1746
16654SOL    HW150140   6.659   0.234   3.493 -0.5883 -0.3328 -2.9032
16654SOL    HW250141   6.503   0.280   3.510 -0.1726  0.1236  0.2115
16655SOL     OW50142   5.982   3.757   6.746  0.3160  0.1377  0.1853
16655SOL    HW150143   5.943   3.826   6.684 -1.6843 -0.3777  0.7923
16655SOL    HW250144   5.995   3.798   6.837 -0.1844 -0.0614  0.3528
16656SOL     OW50145   4.778   6.419   4.152  0.0859 -0.1344  0.4898
16656SOL    HW150146   4.728   6.505   4.149  0.1255 -0.0693  1.3817
16656SOL    HW250147   4.729   6.354   4.210 -0.0017 -0.7507 -0.2660
16657SOL     OW50148   3.006   5.951   7.332  0.0391  0.1874 -0.2210
16657SOL    HW150149   3.052   5.976   7.247  0.1286  0.2431 -0.1560
16657SOL    HW250150   3.035   6.012   7.405 -0.4276  0.4690 -0.2628
16658SOL     OW50151   7.783   0.327   5.690  0.0339 -0.0441  0.4557
16658SOL    HW150152   7.743   0.276   5.766  1.4401 -0.8256  0.7079
16658SOL    HW250153   7.844   0.267   5.638  1.1228  1.1760  0.2830
16659SOL     OW50154   7.597   7.565   7.400  0.3196  0.1014 -0.1725
16659SOL    HW150155   7.572   7.472   7.425 -0.3134 -0.6045 -3.1334
16659SOL    HW250156   7.571   7.627   7.474 -2.6524 -1.6199  0.3654
16660SOL     OW50157   2.683   1.536   4.662  0.5463 -0.1424 -0.1282
16660SOL    HW150158   2.657   1.441   4.643  1.0921 -0.5754  1.1222
16660SOL    HW250159   2.782   1.547   4.647  0.0103  1.1439 -3.5555
16661SOL     OW50160   3.694   1.208   6.355 -0.4130 -0.1475  0.3530
16661SOL    HW150161   3.773   1.200   6.294 -0.3312 -0.2573  0.4732
16661SOL    HW250162   3.659   1.301   6.352  0.9117  0.4354  1.7750
16662SOL     OW50163   8.146   5.154   2.960  0.2099  0.1789 -0.3370
16662SOL    HW150164   8.207   5.076   2.950  1.4051  1.3587 -4.2871
16662SOL    HW250165   8.174   5.209   3.039  2.4899 -0.8037 -0.3879
16663SOL     OW50166   5.193   7.739   7.512  0.5127 -0.5695 -0.1539
16663SOL    HW150167   5.120   7.766   7.450  0.2619 -1.0318 -0.0582
16663SOL    HW250168   5.281   7.770   7.474  0.6692 -3.0920 -2.0800
16664SOL     OW50169   3.810   2.487   6.627  0.3218  0.2670  0.1009
16664SOL    HW150170   3.713   2.472   6.607  0.7990 -1.6268 -0.9886
16664SOL    HW250171   3.846   2.411   6.680  1.2688  0.8407  0.3038
16665SOL     OW50172   8.339   5.218   4.724 -0.1288  0.1331 -0.5834
16665SOL    HW150173   8.328   5.294   4.660  0.0423  0.7045  0.0531
16665SOL    HW250174   8.413   5.239   4.788 -0.3868 -0.3682 -0.1174
16666SOL     OW50175   6.686   3.696   0.255 -0.5986 -0.8944 -0.2828
16666SOL    HW150176   6.695   3.758   0.178 -0.2009 -4.0333 -3.0045
16666SOL    HW250177   6.593   3.659   0.258 -0.8618 -0.1739  1.3324
16667SOL     OW50178   1.160   1.412   4.272 -0.7318  0.0432 -0.0679
16667SOL    HW150179   1.128   1.506   4.283 -1.0872  0.1171 -1.5517
16667SOL    HW250180   1.163   1.367   4.362  1.0201  1.9410  0.8956
16668SOL     OW50181   6.035   4.230   4.060  0.2978 -0.1017  0.7032
16668SOL    HW150182   6.045   4.329   4.054 -0.1573 -0.0562  0.7133
16668SOL    HW250183   6.090   4.187   3.988  0.8265  0.1377  0.9588
16669SOL     OW50184   2.344   4.224   1.529  0.0309  0.0381  0.2048
16669SOL    HW150185   2.440   4.197   1.518  0.7149  1.4950  2.1307
16669SOL    HW250186   2.332   4.272   1.616 -2.6099 -0.7254  0.3585
16670SOL     OW50187   7.751   1.837   8.073  0.0521  0.2812 -0.7498
16670SOL    HW150188   7.779   1.818   7.979  0.6298 -1.2990 -0.2963
16670SOL    HW250189   7.822   1.805   8.136 -0.4031  1.1515  0.2419
16671SOL     OW50190   1.249   8.720   5.510  0.3422  0.3918 -0.2027
16671SOL    HW150191   1.266   8.768   5.424 -0.0839  1.3045  0.2042
16671SOL    HW250192   1.176   8.767   5.560 -0.8553 -1.3098 -0.2589
16672SOL     OW50193   0.638   6.410   5.771  0.6717  0.0760 -0.1558
16672SOL    HW150194   0.639   6.493   5.827 -0.9362 -0.3798  0.6026
16672SOL    HW250195   0.692   6.425   5.688  0.4825  1.8369  0.0017
16673SOL     OW50196   6.948   2.213   2.630 -0.4457  0.0149 -0.4067
16673SOL    HW150197   6.935   2.302   2.586  1.2749  0.6785  0.3825
16673SOL    HW250198   7.026   2.167   2.588  0.5143  0.1712  1.1647
16674SOL     OW50199   7.069   6.350   2.850 -0.3192  0.1699 -0.4858
16674SOL    HW150200   6.982   6.311   2.821  0.1051 -0.6583 -0.6826
16674SOL    HW250201   7.130   6.276   2.880  0.3665  0.7192 -0.5012
16675SOL     OW50202   3.390   3.153   8.768  0.3872  0.6354  0.1703
16675SOL    HW150203   3.294   3.177   8.762  0.6730  1.5041 -1.4902
16675SOL    HW250204   3.402   3.055   8.749 -0.2459  0.3036  1.4149
16676SOL     OW50205   3.483   5.840   8.687  0.0575  0.3948  0.1766
16676SOL    HW150206   3.487   5.769   8.616 -1.8790 -0.9031  1.2594
16676SOL    HW250207   3.526   5.923   8.653  0.2871 -0.5474 -2.0535
16677SOL     OW50208   7.788   5.122   2.698  0.3900  0.0205  0.3191
16677SOL    HW150209   7.756   5.082   2.784  0.0004  1.6728  0.9703
16677SOL    HW250210   7.740   5.080   2.622 -0.9502  0.1311  1.0663
16678SOL     OW50211   7.649   4.462   7.884  0.7169  0.6903  0.3664
16678SOL    HW150212   7.737   4.499   7.914  0.8846  0.7268 -0.1670
16678SOL    HW250213   7.612   4.518   7.810 -0.8539  2.0453  2.0622
16679SOL     OW50214   3.002   3.905   0.222 -0.5989  0.2078 -0.1484
16679SOL    HW150215   3.062   3.874   0.296 -0.0922  2.5948  0.5142
16679SOL    HW250216   3.044   3.982   0.175 -1.9089  0.1258 -1.5249
16680SOL     OW50217   4.715   1.635   3.783 -0.4210  0.1568  0.5471
16680SOL    HW150218   4.738   1.720   3.832 -0.6068 -0.0443  0.9877
16680SOL    HW250219   4.781   1.564   3.809  0.5194  0.5016 -0.7939
16681SOL     OW50220   5.290   7.205   6.990  0.7962  0.2917  0.0676
16681SOL    HW150221   5.307   7.232   7.085 -0.0320  2.6567 -0.3769
16681SOL    HW250222   5.377   7.183   6.945  1.2279 -0.4888  1.2472
16682SOL     OW50223   6.140   4.933   6.952 -0.1984 -0.5645 -1.0279
16682SOL    HW150224   6.150   4.861   6.884 -0.5582 -2.2908  0.6679
16682SOL    HW250225   6.044   4.958   6.961 -0.1045 -0.0397 -1.4248
16683SOL     OW50226   4.537   5.249   0.296  0.0753 -0.1758 -0.2083
16683SOL    HW150227   4.526   5.296   0.209 -0.8486 -0.0423 -0.0375
16683SOL    HW250228   4.540   5.150   0.281 -1.7289 -0.2585 -0.2912
16684SOL     OW50229   4.333   8.522   7.608 -0.0227  0.0643  0.3578
16684SOL    HW150230   4.321   8.586   7.533  0.4034  0.4425  0.6052
16684SOL    HW250231   4.306   8.566   7.694  3.3731  1.1509  1.0246
16685SOL     OW50232   3.445   6.693   5.366 -0.0263  0.0659  0.3466
16685SOL    HW150233   3.519   6.625   5.358 -0.3159 -0.1878 -0.2267
16685SOL    HW250234   3.454   6.761   5.294  1.3935  1.7829  2.0461
16686SOL     OW50235   3.905   7.605   2.673  0.3003 -1.0125  0.2879
16686SOL    HW150236   3.868   7.682   2.724  1.9276 -0.5677  0.8813
16686SOL    HW250237   4.003   7.620   2.657  0.7211 -3.0519  0.6352
16687SOL     OW50238   4.074   2.443   7.189 -0.6878  0.2051  0.0100
16687SOL    HW150239   4.073   2.425   7.091  0.4111 -0.9001  0.1680
16687SOL    HW250240   3.981   2.456   7.222 -1.0635  0.6570 -1.1845
16688SOL     OW50241   4.412   7.712   7.379  0.4791 -0.3336 -0.2855
16688SOL    HW150242   4.415   7.634   7.316 -1.4244  0.1855 -1.0922
16688SOL    HW250243   4.394   7.796   7.328  0.3746  0.3314  0.7977
16689SOL     OW50244   4.983   0.517   0.631 -0.6744 -0.2460  0.0903
16689SOL    HW150245   5.073   0.555   0.653  0.1474 -2.0360 -0.0061
16689SOL    HW250246   4.919   0.540   0.704 -0.2157  1.2296  0.0668
16690SOL     OW50247   6.770   3.010   8.659 -0.1121 -0.2941 -0.3386
16690SOL    HW150248   6.793   3.106   8.645 -0.3541 -0.2597 -0.5142
16690SOL    HW250249   6.848   2.962   8.699 -0.7637  0.5065  2.0846
16691SOL     OW50250   7.838   6.563   3.390 -0.1565  0.1796  0.8257
16691SOL    HW150251   7.789   6.485   3.350 -1.9507 -0.5355  4.0487
16691SOL    HW250252   7.934   6.560   3.362 -1.0189 -0.6560 -2.5552
16692SOL     OW50253   8.163   3.597   7.810 -0.4810 -0.0233 -0.2388
16692SOL    HW150254   8.220   3.535   7.864 -1.6549 -0.4376  0.5480
16692SOL    HW250255   8.156   3.562   7.716  0.0189 -0.3090 -0.1764
16693SOL     OW50256   3.921   5.839   0.554 -0.3496 -0.6379  0.2328
16693SOL    HW150257   4.006   5.840   0.502 -1.6313  1.0524 -2.0315
16693SOL    HW250258   3.924   5.908   0.626  0.0647 -0.3054 -0.1006
16694SOL     OW50259   4.775   2.552   7.907  0.8589 -0.0925 -0.0771
16694SOL    HW150260   4.750   2.541   7.810  0.7494  1.1357 -0.2039
16694SOL    HW250261   4.722   2.487   7.962 -0.0876  0.1318 -0.7024
16695SOL     OW50262   7.009   1.092   3.825 -0.0029  0.3265 -0.2849
16695SOL    HW150263   7.048   1.184   3.831  0.3277  0.0729  1.9435
16695SOL    HW250264   6.912   1.099   3.800 -0.1481  1.3202  0.5084
16696SOL     OW50265   4.014   7.982   2.827  0.1253  0.1071  0.1049
16696SOL    HW150266   4.098   7.929   2.815 -0.4715 -0.4428 -2.0821
16696SOL    HW250267   4.031   8.057   2.890  1.7965 -0.9449  0.9942
16697SOL     OW50268   7.595   8.026   3.547 -0.5612 -0.2265  0.4456
16697SOL    HW150269   7.672   8.065   3.598 -0.0270  0.5280 -0.8796
16697SOL    HW250270   7.512   8.034   3.602  0.3765 -1.7083  2.2085
16698SOL     OW50271   4.602   8.373   1.090  0.4329  0.4230  0.0695
16698SOL    HW150272   4.537   8.440   1.052 -0.1418 -0.7704 -1.1147
16698SOL    HW250273   4.673   8.355   1.022  0.7445  0.0374  0.5000
16699SOL     OW50274   0.671   2.140   0.682 -0.3410 -0.0605 -0.3439
16699SOL    HW150275   0.725   2.219   0.711 -0.0668 -0.5089  0.3996
16699SOL    HW250276   0.594   2.127   0.743 -0.0966 -0.6651 -0.1529
16700SOL     OW50277   7.847   2.149   3.189  0.4092  0.3442  0.1203
16700SOL    HW150278   7.896   2.201   3.118  1.2717 -0.5399  0.0391
16700SOL    HW250279   7.789   2.080   3.146 -1.3038  1.6784  0.2018
16701SOL     OW50280   0.422   3.380   5.150 -0.4451 -0.4785  0.3095
16701SOL    HW150281   0.352   3.398   5.081 -0.3243 -1.7193 -0.1745
16701SOL    HW250282   0.484   3.309   5.116 -0.7837 -1.6141  1.9719
16702SOL     OW50283   2.829   3.269   8.083 -0.9745  0.2900 -0.5289
16702SOL    HW150284   2.798   3.228   7.998 -2.5211 -2.0856  1.0460
16702SOL    HW250285   2.927   3.253   8.095 -0.9619 -0.2994 -1.3728
16703SOL     OW50286   1.293   1.654   5.301  0.2436  0.1000  0.1679
16703SOL    HW150287   1.296   1.599   5.218 -0.5581  0.9992 -0.4783
16703SOL    HW250288   1.236   1.607   5.369  0.2393 -0.2599 -0.0780
16704SOL     OW50289   7.093   4.691   5.877 -0.1426  0.1004 -0.1493
16704SOL    HW150290   7.013   4.694   5.936 -0.0019  1.2968  0.0180
16704SOL    HW250291   7.163   4.633   5.918  0.5958  2.1790  1.7513
16705SOL     OW50292   0.678   7.477   2.428 -0.2128  0.4032 -0.4577
16705SOL    HW150293   0.708   7.563   2.469 -1.5170  0.6644 -0.0034
16705SOL    HW250294   0.678   7.486   2.329 -1.0930  1.2037 -0.3957
16706SOL     OW50295   6.434   0.447   3.478  0.0212 -0.6435  0.7537
16706SOL    HW150296   6.385   0.448   3.391 -0.5137  0.3907  1.0500
16706SOL    HW250297   6.373   0.475   3.552  1.3598  2.3013  0.9158
16707SOL     OW50298   4.590   6.835   7.376 -0.4760 -0.5597  0.2033
16707SOL    HW150299   4.575   6.894   7.297  0.2651 -1.7735 -0.8717
16707SOL    HW250300   4.587   6.740   7.348  1.3880 -1.0026  1.3371
16708SOL     OW50301   2.452   1.868   5.962 -0.2748  0.4828 -0.1829
16708SOL    HW150302   2.362   1.910   5.959 -0.9505 -0.8810  0.3553
16708SOL    HW250303   2.444   1.771   5.984  1.0822 -0.4380 -3.1407
16709SOL     OW50304   3.010   0.155   2.354  0.0953 -0.3292 -0.1865
16709SOL    HW150305   2.932   0.170   2.293  1.4098  2.7205 -1.3569
16709SOL    HW250306   3.070   0.085   2.315 -0.9582 -1.1224 -0.4082
16710SOL     OW50307   7.756   0.551   7.836  0.0191  0.6053  0.3039
16710SOL    HW150308   7.690   0.622   7.814  1.3343  1.4811 -1.0420
16710SOL    HW250309   7.831   0.554   7.769  0.9447 -0.9558  1.2182
16711SOL     OW50310   0.149   4.707   5.385  0.4583 -0.4698 -0.0137
16711SOL    HW150311   0.174   4.758   5.468  1.4718 -0.8763 -0.0556
16711SOL    HW250312   0.051   4.715   5.370 -0.2521 -2.5286  2.7012
16712SOL     OW50313   6.805   7.820   1.070 -0.6118 -0.4261  0.0920
16712SOL    HW150314   6.728   7.876   1.038  0.8112  1.9666  0.6123
16712SOL    HW250315   6.873   7.813   0.997 -0.3991 -0.7659  0.3207
16713SOL     OW50316   2.669   4.515   7.038 -0.1604 -0.0038  0.0353
16713SOL    HW150317   2.633   4.425   7.063 -0.8631  0.3076  0.1790
16713SOL    HW250318   2.683   4.569   7.122 -0.4854  0.2890 -0.0937
16714SOL     OW50319   3.938   7.362   3.759  0.3607 -0.0642  0.1243
16714SOL    HW150320   4.001   7.291   3.790  0.3555 -0.0516  0.1658
16714SOL    HW250321   3.945   7.441   3.821  1.5429  0.6237 -0.8373
16715SOL     OW50322   5.043   2.235   3.307 -0.0905  0.3034 -0.1309
16715SOL    HW150323   5.023   2.139   3.329 -0.6965  0.5925  0.6272
16715SOL    HW250324   5.118   2.239   3.242 -1.8376 -0.7954 -2.3512
16716SOL     OW50325   6.100   6.575   5.481 -0.7733  0.4948 -0.2194
16716SOL    HW150326   6.029   6.565   5.411 -0.5372 -0.8749 -0.2977
16716SOL    HW250327   6.064   6.547   5.570 -0.1275 -1.0608 -0.4076
16717SOL     OW50328   6.977   8.774   2.664  0.1258  0.1344 -0.0371
16717SOL    HW150329   7.054   8.820   2.709 -0.9561  1.9122  0.0957
16717SOL    HW250330   6.961   8.815   2.574 -1.7080  0.9870  0.6307
16718SOL     OW50331   0.377   3.540   3.225 -0.1277  0.4203 -0.2189
16718SOL    HW150332   0.305   3.610   3.230 -0.1532  0.3040  2.1699
16718SOL    HW250333   0.338   3.455   3.191 -1.0311  0.5267  0.5027
16719SOL     OW50334   8.646   4.765   3.627  1.1102  0.0390 -0.2391
16719SOL    HW150335   8.710   4.795   3.698 -0.6832  1.3140  0.9302
16719SOL    HW250336   8.696   4.745   3.543  3.2795 -1.1928  1.2446
16720SOL     OW50337   1.985   7.644   3.371  0.3860  0.3121  0.2718
16720SOL    HW150338   2.048   7.632   3.448  0.1492 -1.8122  0.1752
16720SOL    HW250339   2.032   7.623   3.285  0.5080  2.1950 -0.1818
16721SOL     OW50340   1.913   0.908   8.094 -0.4298  0.2491 -0.3331
16721SOL    HW150341   1.993   0.901   8.034  0.0711 -1.6390  0.4609
16721SOL    HW250342   1.936   0.869   8.184 -0.7525  4.0276  1.6018
16722SOL     OW50343   3.797   0.966   7.253 -0.0354 -0.4419 -0.5279
16722SOL    HW150344   3.763   1.032   7.320  0.7951 -0.6411  0.1124
16722SOL    HW250345   3.744   0.882   7.260 -0.2082 -0.3221 -0.3841
16723SOL     OW50346   4.264   3.787   1.123 -0.3849 -0.1787  0.0141
16723SOL    HW150347   4.276   3.885   1.138 -1.0826 -0.0510 -0.2194
16723SOL    HW250348   4.285   3.737   1.207 -0.5723  0.2186  0.2962
16724SOL     OW50349   5.322   2.366   1.397  0.0444 -0.1022  0.5314
16724SOL    HW150350   5.294   2.388   1.491  1.1878 -1.8661  1.3504
16724SOL    HW250351   5.384   2.437   1.364 -0.1316  0.3904  1.2369
16725SOL     OW50352   2.661   0.174   5.412 -0.4424  0.6347  0.1629
16725SOL    HW150353   2.715   0.258   5.401  1.1989 -0.1651  1.7005
16725SOL    HW250354   2.689   0.107   5.343 -2.6197  1.6797 -1.8853
16726SOL     OW50355   7.741   7.806   6.385 -0.2179 -0.0803 -0.1358
16726SOL    HW150356   7.675   7.775   6.316  0.5051 -0.5863 -0.6218
16726SOL    HW250357   7.832   7.813   6.343  0.3695 -1.0439  0.9081
16727SOL     OW50358   3.969   2.659   6.507 -0.1708 -0.3447  0.4904
16727SOL    HW150359   3.896   2.613   6.558  2.3604 -4.8191  0.5944
16727SOL    HW250360   3.962   2.635   6.410 -0.1823  1.1900  0.0955
16728SOL     OW50361   3.994   5.505   5.563 -0.6890  0.1314 -0.0986
16728SOL    HW150362   4.000   5.601   5.588 -2.1770 -0.0543  1.2066
16728SOL    HW250363   4.083   5.461   5.576 -0.1527  1.1887 -0.0941
16729SOL     OW50364   1.307   1.950   8.296  0.0498 -0.0118  0.2432
16729SOL    HW150365   1.395   1.946   8.250 -0.1005 -0.0547 -0.0458
16729SOL    HW250366   1.274   2.045   8.296  0.7863  0.2728  1.6838
16730SOL     OW50367   3.510   1.521   1.984 -0.2577 -0.1044  0.1185
16730SOL    HW150368   3.513   1.605   2.038 -0.2574 -0.0668  0.0601
16730SOL    HW250369   3.493   1.443   2.044 -2.0895  0.1265 -0.0396
16731SOL     OW50370   6.914   2.361   0.139 -0.3989 -0.2027 -0.0279
16731SOL    HW150371   6.914   2.377   0.238  1.3514 -0.0834 -0.0115
16731SOL    HW250372   6.909   2.263   0.121  0.6223 -0.3247  0.2516
16732SOL     OW50373   3.850   2.989   1.968 -0.4210 -0.0990  0.3043
16732SOL    HW150374   3.784   3.052   2.009  0.9277  0.8040  1.1616
16732SOL    HW250375   3.875   3.022   1.877 -1.1146 -0.4349 -0.0171
16733SOL     OW50376   7.392   2.167   8.305 -0.2328  0.0760  0.2229
16733SOL    HW150377   7.349   2.099   8.364  1.0945 -1.4238 -0.4909
16733SOL    HW250378   7.372   2.146   8.209  0.8205  0.2362 -0.0438
16734SOL     OW50379   8.464   1.185   3.622 -0.6590  0.4855  0.0897
16734SOL    HW150380   8.424   1.108   3.573 -0.9852  0.4055  0.4726
16734SOL    HW250381   8.500   1.154   3.710  1.8377  0.2155 -0.9688
16735SOL     OW50382   6.750   8.447   2.463  0.4525 -0.0786  0.1444
16735SOL    HW150383   6.711   8.525   2.415  1.8217 -0.3272 -1.4566
16735SOL    HW250384   6.801   8.391   2.399  0.9740 -1.3452  1.6128
16736SOL     OW50385   3.062   6.934   0.425  0.4949  0.4670 -0.2645
16736SOL    HW150386   3.031   7.021   0.462 -2.2340 -0.3496 -0.4180
16736SOL    HW250387   3.132   6.895   0.485  0.3295  1.8375  0.8662
16737SOL     OW50388   5.333   1.571   2.975 -0.0372  0.0253  0.1853
16737SOL    HW150389   5.269   1.563   3.051 -1.1628  1.0355 -0.5982
16737SOL    HW250390   5.283   1.561   2.889  0.9954  0.1322 -0.4448
16738SOL     OW50391   0.328   2.362   5.663  0.1710  0.0510  0.1927
16738SOL    HW150392   0.335   2.329   5.568  0.4604  0.1454  0.1814
16738SOL    HW250393   0.346   2.286   5.725 -0.9153 -0.2277  0.1848
16739SOL     OW50394   0.836   7.825   7.314 -0.0514 -0.7279 -0.4527
16739SOL    HW150395   0.875   7.733   7.325  0.3728 -0.5219 -0.2131
16739SOL    HW250396   0.904   7.885   7.272 -0.0883 -0.3437  0.0400
16740SOL     OW50397   0.257   2.586   7.058 -0.4379  0.3093  0.1453
16740SOL    HW150398   0.323   2.651   7.097 -1.2844  1.0768  0.3223
16740SOL    HW250399   0.164   2.615   7.081 -1.0449  1.1420 -2.9642
16741SOL     OW50400   0.187   4.992   5.504  0.2540  0.5929  0.0177
16741SOL    HW150401   0.125   5.065   5.478  0.5162  0.6625 -0.4411
16741SOL    HW250402   0.269   4.996   5.446 -0.7010 -1.4275 -1.5935
16742SOL     OW50403   7.543   5.394   1.310  0.4234 -0.2042  0.4564
16742SOL    HW150404   7.469   5.441   1.358  1.8297  2.0724  0.5259
16742SOL    HW250405   7.631   5.417   1.352  1.2838 -2.2966 -0.0485
16743SOL     OW50406   7.313   3.447   6.095  0.5969 -0.3644  0.3194
16743SOL    HW150407   7.241   3.392   6.136  0.3402  0.1498  0.5701
16743SOL    HW250408   7.293   3.544   6.109  0.9282 -0.1983 -0.3078
16744SOL     OW50409   8.151   5.224   7.027  0.3590  0.0727 -0.8117
16744SOL    HW150410   8.179   5.276   7.108 -1.5688  0.7202 -0.5238
16744SOL    HW250411   8.204   5.254   6.948  0.0725  1.6714 -0.4181
16745SOL     OW50412   8.344   6.713   7.490 -0.2560 -0.6383 -0.4541
16745SOL    HW150413   8.350   6.791   7.428 -2.7263 -1.1275 -1.4306
16745SOL    HW250414   8.363   6.629   7.440 -0.0417 -0.8603 -0.0030
16746SOL     OW50415   3.104   1.521   0.577 -0.1310 -0.6740  0.1248
16746SOL    HW150416   3.165   1.447   0.605  1.3409  0.4122 -0.0569
16746SOL    HW250417   3.009   1.494   0.592  0.2218 -3.2862 -1.5774
16747SOL     OW50418   4.085   8.226   8.678 -0.0708  0.3962  0.0186
16747SOL    HW150419   4.049   8.135   8.695  1.5869 -0.3401 -0.2835
16747SOL    HW250420   4.010   8.286   8.650 -1.1977 -0.8376  0.2947
16748SOL     OW50421   4.385   7.017   1.825 -0.4961 -0.0133  0.2942
16748SOL    HW150422   4.376   6.975   1.735 -2.4948 -0.0439  0.4539
16748SOL    HW250423   4.464   7.078   1.826 -0.7746  0.4558 -1.6932
16749SOL     OW50424   3.783   2.454   5.574  0.0108 -0.3804  0.1883
16749SOL    HW150425   3.841   2.533   5.592 -0.6993  0.2735 -0.3593
16749SOL    HW250426   3.704   2.456   5.636 -0.9503  0.3369 -1.0146
16750SOL     OW50427   6.743   0.687   2.256 -0.7671  0.1218  0.3676
16750SOL    HW150428   6.820   0.625   2.239  0.5821  1.6363  0.7837
16750SOL    HW250429   6.670   0.669   2.189  0.0356 -1.1701 -0.1895
16751SOL     OW50430   2.808   3.687   3.477 -0.1414  0.3003  0.1636
16751SOL    HW150431   2.885   3.700   3.415 -0.3857 -0.5762 -0.3552
16751SOL    HW250432   2.723   3.699   3.426 -0.3451 -0.5887  0.2755
16752SOL     OW50433   7.487   7.027   3.597 -0.4453 -0.3669 -0.1821
16752SOL    HW150434   7.536   6.943   3.575  1.3911  0.4171  0.7322
16752SOL    HW250435   7.465   7.029   3.694  1.3729  1.0790  0.2485
16753SOL     OW50436   7.074   3.338   2.356  0.3711 -0.1764 -0.2862
16753SOL    HW150437   7.132   3.391   2.294  0.8280  0.8616  0.9917
16753SOL    HW250438   7.121   3.326   2.443 -0.7316 -0.6298  0.2605
16754SOL     OW50439   6.574   5.584   2.090 -0.4863  0.5677 -0.1483
16754SOL    HW150440   6.548   5.552   1.999  0.0945  0.7234 -0.3695
16754SOL    HW250441   6.627   5.668   2.082 -1.0999  1.0179  0.3740
16755SOL     OW50442   3.148   0.661   4.119  0.0983 -0.6062 -0.6818
16755SOL    HW150443   3.058   0.699   4.142  1.1107  0.6813  1.5450
16755SOL    HW250444   3.192   0.719   4.050 -0.4121 -0.7234 -1.1092
16756SOL     OW50445   5.135   5.764   7.478  0.9870 -0.4555 -0.0870
16756SOL    HW150446   5.103   5.842   7.531 -2.2507 -1.3851 -0.3972
16756SOL    HW250447   5.112   5.779   7.381  1.8659 -1.0765 -0.3998
16757SOL     OW50448   2.717   6.457   4.397  0.0562  0.4399 -0.1150
16757SOL    HW150449   2.777   6.480   4.320  1.8106  0.8496  1.3060
16757SOL    HW250450   2.675   6.368   4.381  0.5881  0.3982 -1.4104
16758SOL     OW50451   6.714   6.865   7.135  0.5477  0.7153  0.3571
16758SOL    HW150452   6.772   6.916   7.199  0.8653  3.0068 -1.6092
16758SOL    HW250453   6.627   6.913   7.122 -0.0931 -0.4616  0.1285
16759SOL     OW50454   8.023   2.459   2.155  0.3436 -0.0458 -0.4355
16759SOL    HW150455   8.032   2.473   2.253  1.4432  2.8632 -0.8651
16759SOL    HW250456   8.082   2.523   2.106 -1.4621 -0.2197 -3.0449
16760SOL     OW50457   2.151   3.874   7.584 -0.3411 -0.0987  0.5708
16760SOL    HW150458   2.241   3.862   7.626 -0.3620  0.8681  0.8976
16760SOL    HW250459   2.080   3.872   7.655 -0.4572  0.5493  0.4809
16761SOL     OW50460   5.556   4.062   1.229 -0.0618 -0.3244  0.0337
16761SOL    HW150461   5.499   4.087   1.151  0.9781 -0.0644 -0.6551
16761SOL    HW250462   5.611   3.981   1.206 -1.3066 -1.5828  1.2571
16762SOL     OW50463   0.438   4.876   6.432 -0.2268  0.1958  0.3149
16762SOL    HW150464   0.384   4.961   6.427  0.9697  0.9302 -0.6229
16762SOL    HW250465   0.535   4.899   6.434  0.0802 -1.0822  2.7317
16763SOL     OW50466   4.543   1.358   6.054 -0.0645 -0.7974  0.1272
16763SOL    HW150467   4.527   1.275   6.108 -1.1857 -2.0084 -1.9177
16763SOL    HW250468   4.583   1.333   5.966  0.5900  0.9831 -0.1250
16764SOL     OW50469   4.683   8.412   5.106 -0.6282 -0.1250 -0.2339
16764SOL    HW150470   4.634   8.326   5.121  0.2901 -0.7265 -0.6158
16764SOL    HW250471   4.641   8.461   5.030 -1.1118 -0.2667 -0.0634
16765SOL     OW50472   4.275   8.716   6.720  0.2092  0.2864  0.1750
16765SOL    HW150473   4.316   8.674   6.639 -0.5097  0.6118 -0.3668
16765SOL    HW250474   4.330   8.796   6.746  0.3895  0.2372 -0.0486
16766SOL     OW50475   5.202   8.073   4.105  0.1392  0.1533  0.1102
16766SOL    HW150476   5.181   7.975   4.116 -0.2519  0.3683  1.3474
16766SOL    HW250477   5.203   8.117   4.194 -0.5613  1.4690 -0.5180
16767SOL     OW50478   8.260   5.104   1.062 -0.4077 -0.9364 -0.1833
16767SOL    HW150479   8.274   5.010   1.031 -0.7972 -0.5590 -1.6018
16767SOL    HW250480   8.341   5.159   1.039 -1.1628 -0.3878 -1.7131
16768SOL     OW50481   8.619   4.711   0.543  0.2527 -0.2900  0.0888
16768SOL    HW150482   8.705   4.674   0.508  1.6402  1.4139  1.5183
16768SOL    HW250483   8.637   4.794   0.597 -2.1245 -0.6826  1.6701
16769SOL     OW50484   0.749   6.399   1.706 -0.4105  0.6364 -0.6544
16769SOL    HW150485   0.755   6.314   1.758  0.1464  1.2449  0.3123
16769SOL    HW250486   0.829   6.408   1.647 -0.2917  0.6534 -0.4923
16770SOL     OW50487   6.658   2.313   4.352 -0.2912  0.0048  0.4019
16770SOL    HW150488   6.629   2.275   4.440  0.0115 -1.8229 -0.2516
16770SOL    HW250489   6.586   2.371   4.315 -0.9145 -0.1873  1.2864
16771SOL     OW50490   7.215   1.146   6.297  0.4294 -0.0286 -0.0539
16771SOL    HW150491   7.159   1.151   6.379 -0.8309 -1.1665 -0.8014
16771SOL    HW250492   7.252   1.236   6.276  1.4995  0.1312  2.2102
16772SOL     OW50493   7.063   8.743   6.793  0.3425 -0.0180 -0.1079
16772SOL    HW150494   7.144   8.802   6.788  1.1321 -0.9120  1.4398
16772SOL    HW250495   7.069   8.672   6.723 -0.0719  1.0123 -1.2462
16773SOL     OW50496   2.120   0.158   4.385  0.3310 -0.2737 -0.3914
16773SOL    HW150497   2.040   0.202   4.345 -1.7032 -0.9065  2.6328
16773SOL    HW250498   2.177   0.227   4.431  1.1909  0.0691 -1.8961
16774SOL     OW50499   5.697   6.123   2.127  0.2761 -0.3172  0.2353
16774SOL    HW150500   5.703   6.103   2.225  0.9852  0.5268  0.3812
16774SOL    HW250501   5.619   6.185   2.111 -1.3950 -2.3935 -0.1030
16775SOL     OW50502   5.040   2.380   2.758  0.1757 -0.2880 -0.2721
16775SOL    HW150503   4.967   2.366   2.691  0.3031  1.7190 -0.8699
16775SOL    HW250504   5.126   2.399   2.711  0.4688  0.2352  0.4532
16776SOL     OW50505   6.386   8.487   3.774  0.4810  0.1934  0.0121
16776SOL    HW150506   6.436   8.455   3.854 -1.2279 -0.0298  1.0456
16776SOL    HW250507   6.369   8.410   3.712 -2.2990 -0.7874  1.7725
16777SOL     OW50508   6.427   6.798   3.370 -0.0162 -0.5760  0.5118
16777SOL    HW150509   6.514   6.789   3.322 -0.8331 -1.3703 -0.8969
16777SOL    HW250510   6.434   6.871   3.438  2.4234 -2.0991  2.0639
16778SOL     OW50511   8.381   7.694   8.534  0.3270 -0.2027 -0.2351
16778SOL    HW150512   8.300   7.637   8.544  1.5145 -1.8580  0.5641
16778SOL    HW250513   8.395   7.716   8.438 -0.0702 -1.4478 -0.5948
16779SOL     OW50514   0.590   5.028   1.020 -1.0634 -0.1500  0.0256
16779SOL    HW150515   0.597   5.054   0.924 -0.3713 -1.0791 -0.1841
16779SOL    HW250516   0.518   4.960   1.031 -0.5654 -0.6896  0.0146
16780SOL     OW50517   3.296   3.758   2.122 -0.5641  0.4250 -0.4804
16780SOL    HW150518   3.279   3.671   2.168 -0.7368 -0.3634 -1.9798
16780SOL    HW250519   3.313   3.742   2.025  1.2027  1.9075 -0.4692
16781SOL     OW50520   8.446   6.597   6.399 -0.0112 -0.0518 -0.3127
16781SOL    HW150521   8.478   6.523   6.339  1.9410 -0.0032  0.5820
16781SOL    HW250522   8.353   6.577   6.430 -0.0291 -1.4441 -1.1820
16782SOL     OW50523   0.245   1.421   0.742  0.0795  0.2712 -0.7868
16782SOL    HW150524   0.158   1.464   0.717  0.3781  0.0209 -2.3636
16782SOL    HW250525   0.291   1.477   0.810 -2.9045 -1.3838  2.9528
16783SOL     OW50526   7.689   6.877   8.376 -0.0038 -0.4638 -0.2731
16783SOL    HW150527   7.605   6.823   8.387 -0.2000  0.0529  0.8933
16783SOL    HW250528   7.752   6.855   8.451  0.3417  0.1547 -0.3779
16784SOL     OW50529   1.828   8.568   2.217 -0.3447 -0.0300  0.3041
16784SOL    HW150530   1.826   8.664   2.247  2.3489  0.2788 -0.2342
16784SOL    HW250531   1.784   8.561   2.128 -1.0407  0.5883  0.5848
16785SOL     OW50532   8.208   7.645   5.518 -0.0532  0.0259 -0.0736
16785SOL    HW150533   8.234   7.554   5.549  0.3543  0.7995  1.9679
16785SOL    HW250534   8.214   7.649   5.418  1.8766 -1.5729 -0.0778
16786SOL     OW50535   7.396   7.249   4.932  0.0455  0.5684 -0.0622
16786SOL    HW150536   7.459   7.319   4.897  1.3407 -0.5800 -0.0863
16786SOL    HW250537   7.398   7.169   4.872  1.5172 -1.0275  1.9805
16787SOL     OW50538   7.869   1.301   8.635  0.4699  0.0944  0.4580
16787SOL    HW150539   7.959   1.343   8.649  0.7343 -0.3393  0.1177
16787SOL    HW250540   7.861   1.221   8.695  1.3310 -1.3608 -1.2419
16788SOL     OW50541   6.288   3.373   7.404  0.0035 -0.5980  0.0553
16788SOL    HW150542   6.309   3.416   7.492  2.8372 -0.3878 -0.6342
16788SOL    HW250543   6.192   3.389   7.382  0.0354  2.3656  1.5009
16789SOL     OW50544   5.676   5.472   4.566 -0.2118 -0.3507 -0.4364
16789SOL    HW150545   5.667   5.405   4.492  0.6209 -0.2468 -0.6415
16789SOL    HW250546   5.736   5.547   4.536 -0.0882 -0.1669  0.2492
16790SOL     OW50547   4.781   5.360   1.131 -0.0481 -0.0465 -0.0607
16790SOL    HW150548   4.693   5.405   1.121 -0.8480 -1.6410 -0.6481
16790SOL    HW250549   4.817   5.377   1.223 -1.1425  0.3271  0.3095
16791SOL     OW50550   3.267   4.565   2.797 -0.1161  0.1329  0.5176
16791SOL    HW150551   3.230   4.475   2.775 -1.8455  0.8228  0.4065
16791SOL    HW250552   3.328   4.595   2.724  1.4198 -1.3909  1.0985
16792SOL     OW50553   0.931   5.602   5.338 -0.0128 -0.2518  0.0255
16792SOL    HW150554   0.859   5.562   5.395  0.0616 -0.6607 -0.1597
16792SOL    HW250555   0.892   5.669   5.276 -0.5938 -1.9616 -1.5370
16793SOL     OW50556   1.569   7.253   3.952 -0.4027 -0.3705  0.5924
16793SOL    HW150557   1.639   7.321   3.974 -0.1550 -0.4725  0.1367
16793SOL    HW250558   1.595   7.165   3.991  0.7225 -0.8828 -1.1641
16794SOL     OW50559   0.505   6.003   8.596 -0.6421 -0.7338 -0.3435
16794SOL    HW150560   0.526   6.063   8.519  0.3963 -1.6990 -0.8475
16794SOL    HW250561   0.536   6.046   8.681 -2.2493  0.5643 -0.3696
16795SOL     OW50562   3.937   3.389   5.882 -0.8067  0.4317 -0.1663
16795SOL    HW150563   3.984   3.300   5.883  1.5049  1.5711  1.4627
16795SOL    HW250564   3.845   3.379   5.920 -0.7442 -1.3061 -0.3952
16796SOL     OW50565   1.583   3.094   5.859 -0.8352  0.4060  0.0588
16796SOL    HW150566   1.521   3.167   5.829 -0.0966  0.5183 -1.2590
16796SOL    HW250567   1.604   3.034   5.781  2.2520  1.5037 -0.0920
16797SOL     OW50568   4.833   6.079   1.191  0.1068  0.3082 -0.1808
16797SOL    HW150569   4.809   6.177   1.192 -1.4059 -0.0336 -0.3639
16797SOL    HW250570   4.855   6.052   1.097  0.5479  0.4666 -0.1270
16798SOL     OW50571   6.744   8.383   3.503 -0.1969 -0.1620 -0.0397
16798SOL    HW150572   6.827   8.425   3.466 -0.5857  1.5344  0.8916
16798SOL    HW250573   6.665   8.417   3.453 -0.4847 -0.2100  0.3810
16799SOL     OW50574   4.307   2.173   4.828 -0.2545 -0.1084  0.2665
16799SOL    HW150575   4.320   2.083   4.786  0.5551  0.6168 -1.1162
16799SOL    HW250576   4.228   2.218   4.787  0.1477  0.3454 -0.0241
16800SOL     OW50577   6.243   1.361   1.512 -0.0046 -0.2487 -0.2740
16800SOL    HW150578   6.343   1.354   1.510  0.1274  1.3944 -0.5309
16800SOL    HW250579   6.205   1.319   1.429  0.6084  0.8626 -1.1321
16801SOL     OW50580   4.772   2.598   3.945 -0.2136  0.3210  0.6788
16801SOL    HW150581   4.744   2.530   3.878 -0.1366  0.4756  0.4858
16801SOL    HW250582   4.831   2.556   4.013  1.7217  0.6390 -0.7081
16802SOL     OW50583   2.621   5.789   3.858  0.3246 -0.0536 -0.2897
16802SOL    HW150584   2.693   5.815   3.794 -0.8610  1.1516 -1.2013
16802SOL    HW250585   2.612   5.689   3.860  0.6822 -0.1345 -1.6709
16803SOL     OW50586   2.310   6.253   0.301 -0.1585  0.0110 -1.0182
16803SOL    HW150587   2.231   6.212   0.256  0.0380 -0.0089 -1.3536
16803SOL    HW250588   2.392   6.236   0.246 -0.0242  0.5928 -1.0077
16804SOL     OW50589   3.411   5.908   7.964  0.5441 -0.3769 -0.2519
16804SOL    HW150590   3.354   5.989   7.946  0.2095 -0.7313 -0.8293
16804SOL    HW250591   3.460   5.920   8.050 -2.9321 -1.3917  2.0971
16805SOL     OW50592   5.523   8.774   3.831 -0.2801  0.7568  0.1368
16805SOL    HW150593   5.546   8.677   3.833 -0.2805  0.7598  0.2958
16805SOL    HW250594   5.578   8.820   3.760 -2.1792  0.1644 -1.8153
16806SOL     OW50595   3.847   4.765   1.721 -0.0469 -0.0400  0.3853
16806SOL    HW150596   3.749   4.748   1.728 -0.0422 -0.0799  0.3561
16806SOL    HW250597   3.897   4.679   1.731 -0.0776 -0.2393 -0.9305
16807SOL     OW50598   4.540   2.719   6.743  0.0164  0.4809 -0.0791
16807SOL    HW150599   4.615   2.756   6.689  0.5940 -1.0781 -0.4099
16807SOL    HW250600   4.530   2.621   6.724 -2.0909  0.6264 -0.0139
16808SOL     OW50601   3.634   3.916   5.544 -0.7160  0.1083  0.5084
16808SOL    HW150602   3.665   3.903   5.639 -0.3188  1.1023  0.5233
16808SOL    HW250603   3.702   3.877   5.482  0.3418  1.7596  0.5632
16809SOL     OW50604   8.199   0.546   8.763  0.2551  0.3868 -0.1667
16809SOL    HW150605   8.121   0.544   8.700  1.4072 -0.4248 -1.6247
16809SOL    HW250606   8.165   0.547   8.857 -1.5130  1.1487 -0.7607
16810SOL     OW50607   6.880   6.911   4.740  0.1371 -0.4968  0.2431
16810SOL    HW150608   6.798   6.854   4.731  0.5277 -1.5580  2.5942
16810SOL    HW250609   6.886   6.946   4.834  3.2670 -1.9491  0.6966
16811SOL     OW50610   6.293   1.007   5.328  0.4380  0.3100 -0.3869
16811SOL    HW150611   6.351   1.027   5.406  1.0230 -1.7881 -0.2132
16811SOL    HW250612   6.227   0.936   5.353  1.2221 -1.0590 -1.9984
16812SOL     OW50613   7.267   2.057   0.295 -0.0408  0.2603 -0.0690
16812SOL    HW150614   7.270   2.120   0.372  1.1277 -0.2725  0.3508
16812SOL    HW250615   7.347   2.072   0.237  1.1927 -1.8883  0.9327
16813SOL     OW50616   3.447   8.487   7.021 -0.1744 -0.0549  0.0613
16813SOL    HW150617   3.406   8.399   6.999  0.8955 -0.9998  1.6809
16813SOL    HW250618   3.387   8.561   6.990 -0.8932 -1.3085 -1.7076
16814SOL     OW50619   0.396   7.137   1.629  0.1120  0.4449  0.4209
16814SOL    HW150620   0.412   7.113   1.725  0.5859  0.1676  0.2799
16814SOL    HW250621   0.484   7.139   1.581 -0.2017 -0.3174 -0.2105
16815SOL     OW50622   3.375   5.158   5.268  0.2732  0.6932  0.2344
16815SOL    HW150623   3.395   5.218   5.345 -1.1417  1.6032 -0.0509
16815SOL    HW250624   3.296   5.101   5.290  0.4260  0.3085 -0.2009
16816SOL     OW50625   5.958   0.736   7.942  0.4678 -0.0322  0.9683
16816SOL    HW150626   5.954   0.735   8.042  1.0181 -0.5604  0.9898
16816SOL    HW250627   6.015   0.812   7.913  0.7991 -0.2354  1.0794
16817SOL     OW50628   6.464   5.871   7.732 -0.2359  0.5698 -0.6472
16817SOL    HW150629   6.479   5.954   7.786  0.4389 -0.8426  1.4679
16817SOL    HW250630   6.491   5.888   7.637  2.0795  2.1193  0.1912
16818SOL     OW50631   2.140   1.263   8.838 -0.2551  0.7034 -0.1556
16818SOL    HW150632   2.221   1.313   8.868  0.1886 -0.4297  0.6116
16818SOL    HW250633   2.150   1.238   8.742  0.8445 -0.4105  0.2258
16819SOL     OW50634   8.168   5.273   8.212 -0.5331  0.2045 -0.0527
16819SOL    HW150635   8.252   5.243   8.167 -1.0702  0.2998 -1.1459
16819SOL    HW250636   8.163   5.232   8.303  0.0575 -0.8674 -0.4824
16820SOL     OW50637   5.873   4.134   2.753 -0.7309 -0.7662  0.3050
16820SOL    HW150638   5.893   4.199   2.680 -0.1187 -0.2498  0.9190
16820SOL    HW250639   5.779   4.148   2.785 -0.0446  1.1132  1.6781
16821SOL     OW50640   3.812   8.317   5.335 -0.0446  0.0261 -0.2633
16821SOL    HW150641   3.715   8.294   5.340  0.1000 -0.6939 -0.7177
16821SOL    HW250642   3.867   8.234   5.345  0.5447  0.4981  0.5483
16822SOL     OW50643   1.590   0.827   1.633  1.1172  0.1041  0.3642
16822SOL    HW150644   1.491   0.828   1.649  1.0534  0.6465 -0.0354
16822SOL    HW250645   1.618   0.914   1.592  1.3858 -0.9510 -1.8200
16823SOL     OW50646   7.455   7.594   3.236  0.3679 -0.0574 -0.2405
16823SOL    HW150647   7.512   7.599   3.154 -0.5844  0.4224 -0.8920
16823SOL    HW250648   7.472   7.674   3.293  0.9204 -0.3137 -0.0423
16824SOL     OW50649   1.777   1.833   6.957 -0.7315  0.3439 -0.0244
16824SOL    HW150650   1.756   1.893   6.880  0.9852  1.6546  0.4887
16824SOL    HW250651   1.876   1.823   6.966 -0.9520 -1.8881  0.4507
16825SOL     OW50652   6.313   3.107   0.336  0.1710  0.2013 -0.3222
16825SOL    HW150653   6.237   3.168   0.317 -0.2631  0.3277  1.6118
16825SOL    HW250654   6.294   3.016   0.297 -2.5921 -0.7577  2.8135
16826SOL     OW50655   5.170   4.189   3.973  0.1300 -0.0697  0.4609
16826SOL    HW150656   5.147   4.093   3.992  1.4742 -0.1810  1.6983
16826SOL    HW250657   5.121   4.249   4.036  0.0292 -0.0157  0.3310
16827SOL     OW50658   0.608   6.171   4.352  0.4168 -0.3290  0.0156
16827SOL    HW150659   0.609   6.230   4.432  0.1253  0.3324 -0.4619
16827SOL    HW250660   0.678   6.201   4.287 -0.4866  0.2229 -0.7341
16828SOL     OW50661   0.650   5.510   6.262 -0.5646 -0.0850  0.2284
16828SOL    HW150662   0.558   5.495   6.298 -0.2513 -0.9040  0.7159
16828SOL    HW250663   0.688   5.595   6.300 -0.2324 -0.9436  1.8714
16829SOL     OW50664   7.827   4.659   7.375  0.3898 -0.7332 -0.0680
16829SOL    HW150665   7.850   4.707   7.459 -1.6459  1.4534 -0.6503
16829SOL    HW250666   7.860   4.565   7.380  1.7934 -0.1956  2.4375
16830SOL     OW50667   3.525   0.241   3.124 -0.3094 -0.2815 -0.3434
16830SOL    HW150668   3.444   0.254   3.182 -0.3283 -1.8586  0.0087
16830SOL    HW250669   3.588   0.178   3.168  0.7437  0.2867 -1.0065
16831SOL     OW50670   4.267   5.948   6.515 -0.0778  0.4557 -0.6116
16831SOL    HW150671   4.195   5.943   6.445 -2.2917 -2.1856  1.6055
16831SOL    HW250672   4.297   5.856   6.540  2.5117  1.4128  0.1648
16832SOL     OW50673   6.064   2.003   1.022 -0.0796  0.0181  0.2555
16832SOL    HW150674   6.102   1.942   1.091  1.1322  0.3729 -0.0659
16832SOL    HW250675   5.965   1.992   1.018 -0.2511  0.3560  2.3969
16833SOL     OW50676   8.377   2.561   2.436  0.4329 -0.5825 -0.1467
16833SOL    HW150677   8.382   2.560   2.536  1.7930 -0.4260 -0.1899
16833SOL    HW250678   8.435   2.634   2.401 -0.8389  0.0340 -1.0395
16834SOL     OW50679   7.759   3.604   6.568  0.4250 -0.0634 -0.4955
16834SOL    HW150680   7.751   3.699   6.596 -2.0345 -0.5243  0.6654
16834SOL    HW250681   7.669   3.570   6.539  1.5462 -1.6156 -2.3946
16835SOL     OW50682   3.193   6.340   7.207  0.5959 -0.1713 -0.4167
16835SOL    HW150683   3.207   6.336   7.108 -0.7831  1.7305 -0.7464
16835SOL    HW250684   3.257   6.404   7.248 -0.9287  1.5407 -0.6026
16836SOL     OW50685   5.018   8.433   5.004  0.8273  0.2109  0.2071
16836SOL    HW150686   5.081   8.447   5.080  1.2892 -0.2552 -0.0794
16836SOL    HW250687   4.971   8.346   5.015  2.0664 -0.6263 -0.8303
16837SOL     OW50688   8.526   7.504   4.875  0.3461  0.3178  0.0422
16837SOL    HW150689   8.473   7.424   4.904  0.3161  0.7395  1.1861
16837SOL    HW250690   8.511   7.579   4.939  1.5172  0.7717 -0.1925
16838SOL     OW50691   0.249   8.668   5.476 -0.3873 -0.4391  0.1108
16838SOL    HW150692   0.288   8.625   5.557 -0.6755 -0.9902 -0.0392
16838SOL    HW250693   0.283   8.620   5.394  0.6820  0.7114 -0.1595
16839SOL     OW50694   5.286   7.682   7.760 -0.0169 -0.3901  0.6382
16839SOL    HW150695   5.360   7.749   7.774  0.3446 -0.8359  0.8902
16839SOL    HW250696   5.264   7.676   7.663  0.5022 -0.4814  0.5223
16840SOL     OW50697   0.792   5.305   5.301  0.7842  0.0179 -0.1879
16840SOL    HW150698   0.778   5.333   5.396  0.8122  0.5945 -0.3498
16840SOL    HW250699   0.878   5.344   5.267  0.6380  0.0437 -0.5370
16841SOL     OW50700   0.703   6.581   2.881 -0.0989  0.5038 -0.3222
16841SOL    HW150701   0.656   6.614   2.799 -1.6720  0.2029  0.4333
16841SOL    HW250702   0.658   6.617   2.963  1.1169  0.3690  0.4360
16842SOL     OW50703   4.071   2.469   8.125  0.0616  0.3261  0.5092
16842SOL    HW150704   4.141   2.426   8.182  0.3628 -0.5189 -0.4700
16842SOL    HW250705   4.016   2.531   8.181 -1.4162 -2.4599  2.3804
16843SOL     OW50706   1.893   7.384   4.830  0.2380 -0.2322  0.3035
16843SOL    HW150707   1.820   7.443   4.864 -0.5481 -0.0100 -1.6700
16843SOL    HW250708   1.958   7.366   4.904 -0.3915  1.7064  1.4016
16844SOL     OW50709   3.309   7.382   3.125 -0.6229  0.1527  0.4763
16844SOL    HW150710   3.239   7.396   3.196 -0.1590 -0.9925  1.1952
16844SOL    HW250711   3.360   7.467   3.112 -0.8326  0.4400  1.3969
16845SOL     OW50712   1.790   7.641   2.868 -0.4097  0.7537  0.0871
16845SOL    HW150713   1.829   7.550   2.882 -2.3740  0.1674  2.2399
16845SOL    HW250714   1.733   7.640   2.786  2.7454  1.2720 -2.3310
16846SOL     OW50715   4.727   7.637   1.737  0.1504 -0.3837 -0.2659
16846SOL    HW150716   4.658   7.688   1.684  1.6967  0.6330 -1.3872
16846SOL    HW250717   4.811   7.691   1.742  2.0870 -3.0369 -1.9980
16847SOL     OW50718   3.886   5.355   7.467  0.3943 -0.3747 -0.4584
16847SOL    HW150719   3.872   5.370   7.369  0.0540  0.3807 -0.3070
16847SOL    HW250720   3.969   5.301   7.482  0.8726  0.1575 -1.1322
16848SOL     OW50721   0.293   3.687   5.703 -0.1793  1.0236  0.3842
16848SOL    HW150722   0.365   3.664   5.639 -0.4092 -0.1923  0.5338
16848SOL    HW250723   0.324   3.670   5.796 -0.4489  1.0904  0.4886
16849SOL     OW50724   8.291   2.992   0.308 -0.1283 -0.3875 -1.0046
16849SOL    HW150725   8.290   3.064   0.378 -0.8059  0.2571 -1.6633
16849SOL    HW250726   8.197   2.971   0.281  0.1487  0.0249 -2.3742
16850SOL     OW50727   1.450   3.816   2.907 -0.1597  0.3455 -0.6066
16850SOL    HW150728   1.360   3.774   2.918 -0.9205  2.1478  0.7353
16850SOL    HW250729   1.442   3.915   2.921  2.1760  0.4445  0.5199
16851SOL     OW50730   4.768   1.751   4.907 -0.1414 -0.5445  0.4426
16851SOL    HW150731   4.852   1.752   4.962 -0.6783  1.0153  1.2776
16851SOL    HW250732   4.779   1.687   4.831  2.9593  1.7189 -1.2411
16852SOL     OW50733   4.928   7.899   0.175 -0.2952 -0.1242 -0.2349
16852SOL    HW150734   4.864   7.921   0.102  0.8225 -0.6174 -1.3941
16852SOL    HW250735   4.912   7.960   0.253  0.2811  2.3211 -1.9192
16853SOL     OW50736   5.131   8.803   6.184  0.4017  0.1318  0.2915
16853SOL    HW150737   5.070   8.858   6.127  0.2120  0.0378  0.4035
16853SOL    HW250738   5.167   8.860   6.258 -2.1620 -0.5940  2.2458
16854SOL     OW50739   7.673   4.723   8.570 -0.1224  0.4096  0.9415
16854SOL    HW150740   7.577   4.751   8.572 -0.4861 -0.4053 -1.3618
16854SOL    HW250741   7.693   4.667   8.650 -1.9394 -0.4255  0.8757
16855SOL     OW50742   4.573   3.555   3.257  0.1516  0.2537 -0.3614
16855SOL    HW150743   4.499   3.597   3.206 -0.6950  0.3627  0.9066
16855SOL    HW250744   4.661   3.581   3.216 -0.4738  0.6441 -1.4947
16856SOL     OW50745   5.324   3.026   4.976 -0.4211 -0.3008  0.9864
16856SOL    HW150746   5.326   3.048   5.073 -0.5141  1.0307  0.7162
16856SOL    HW250747   5.263   3.090   4.929  0.9409  0.1879 -0.1862
16857SOL     OW50748   3.568   2.586   1.232 -0.2131 -0.6281  0.6038
16857SOL    HW150749   3.470   2.592   1.251 -0.5643  0.8147 -1.3146
16857SOL    HW250750   3.601   2.494   1.252 -1.7713 -0.9263  2.0086
16858SOL     OW50751   7.121   7.489   5.400 -0.2699  0.4148 -0.3183
16858SOL    HW150752   7.220   7.502   5.409 -0.2204 -0.3998  0.4355
16858SOL    HW250753   7.103   7.399   5.361 -0.7297 -0.0247  0.8549
16859SOL     OW50754   0.453   4.712   5.526  0.6340 -0.8940  0.3536
16859SOL    HW150755   0.451   4.724   5.625  3.8244 -2.6999  0.7916
16859SOL    HW250756   0.482   4.798   5.483  0.3481 -0.4244  1.0785
16860SOL     OW50757   5.256   3.106   0.513  0.4217 -0.1597 -0.6662
16860SOL    HW150758   5.225   3.194   0.477  0.9898  0.0707 -0.6014
16860SOL    HW250759   5.205   3.083   0.596  0.7452  0.4459 -0.2920
16861SOL     OW50760   8.402   0.256   6.399 -0.1106 -0.2723 -0.5583
16861SOL    HW150761   8.489   0.277   6.443 -1.0448  0.7302  0.8856
16861SOL    HW250762   8.345   0.202   6.461 -0.7158 -0.4829 -1.2842
16862SOL     OW50763   4.060   6.159   3.069 -0.6255  0.5109 -0.0390
16862SOL    HW150764   4.032   6.063   3.071  2.9332 -0.7487 -2.4870
16862SOL    HW250765   4.079   6.187   2.975 -3.2400  4.3311  0.3191
16863SOL     OW50766   7.153   0.309   1.754  0.1192 -0.0986  0.9581
16863SOL    HW150767   7.059   0.335   1.730 -0.2172 -1.8857  0.1974
16863SOL    HW250768   7.160   0.210   1.758  1.3808  0.0294  3.5974
16864SOL     OW50769   3.320   8.298   6.898 -0.7947  0.3416 -0.0733
16864SOL    HW150770   3.236   8.250   6.872 -0.1675 -0.5353 -0.4998
16864SOL    HW250771   3.352   8.353   6.821 -0.9309  0.6198  0.0663
16865SOL     OW50772   0.034   0.274   5.670  0.4902  0.3354 -0.5885
16865SOL    HW150773  -0.015   0.186   5.676  2.8532 -0.9619  1.9650
16865SOL    HW250774  -0.026   0.347   5.701 -0.3130 -1.0155  1.2903
16866SOL     OW50775   2.693   4.828   4.945 -0.0365 -0.4630 -0.1742
16866SOL    HW150776   2.676   4.919   4.983 -1.6907 -0.2669 -1.2899
16866SOL    HW250777   2.715   4.836   4.848  0.7053 -1.1995 -0.0713
16867SOL     OW50778   7.686   1.784   0.094 -0.0529 -0.6742  0.6040
16867SOL    HW150779   7.630   1.748   0.020 -0.2087  0.8226 -0.0267
16867SOL    HW250780   7.777   1.742   0.090 -0.9397 -2.8309  1.4149
16868SOL     OW50781   6.363   2.381   7.771  0.5849  0.1100  0.3984
16868SOL    HW150782   6.394   2.451   7.707  0.2859  0.2831  0.4412
16868SOL    HW250783   6.280   2.338   7.737  0.0843  0.6174  0.9516
16869SOL     OW50784   1.985   5.639   5.612 -0.4569 -0.2470 -0.4634
16869SOL    HW150785   2.073   5.597   5.589 -0.2753  1.1229 -2.5358
16869SOL    HW250786   1.988   5.736   5.589 -1.0842  0.8934  3.5334
16870SOL     OW50787   5.605   2.086   8.501 -0.2249  0.8319 -0.3433
16870SOL    HW150788   5.607   2.166   8.561 -1.2787  0.6367 -0.0289
16870SOL    HW250789   5.510   2.061   8.482  0.0859  0.6637 -1.7956
16871SOL     OW50790   0.630   8.277   6.695  0.1459  0.1548  0.1336
16871SOL    HW150791   0.584   8.345   6.753 -0.9531  0.8279 -1.4571
16871SOL    HW250792   0.704   8.234   6.747 -1.3229  0.0889  2.3054
16872SOL     OW50793   2.320   8.042   5.938  0.7076 -0.1958 -0.1897
16872SOL    HW150794   2.321   8.123   5.879  2.9378 -1.1486 -1.5879
16872SOL    HW250795   2.317   7.960   5.882  0.0870 -1.1318  1.1597
16873SOL     OW50796   8.120   3.079   4.717  0.2684  0.1269  0.2672
16873SOL    HW150797   8.087   3.166   4.754  0.0076 -0.1491  0.6714
16873SOL    HW250798   8.220   3.078   4.721  0.2179 -0.4624  2.2493
16874SOL     OW50799   3.634   1.212   0.826  0.3127 -0.7350 -0.3242
16874SOL    HW150800   3.695   1.144   0.866 -0.5635 -0.9129  0.7479
16874SOL    HW250801   3.678   1.253   0.746  1.3015 -1.7622 -0.3299
16875SOL     OW50802   6.467   5.396   0.587  0.6837  1.0133  0.4839
16875SOL    HW150803   6.435   5.396   0.492 -0.8027 -1.2604  0.9282
16875SOL    HW250804   6.562   5.366   0.589  0.0996 -1.0019 -0.1597
16876SOL     OW50805   3.898   4.483   3.040  0.0078 -0.2909 -0.2353
16876SOL    HW150806   3.948   4.570   3.044  0.1845 -0.4182  0.4054
16876SOL    HW250807   3.849   4.477   2.953  0.5924  0.1220 -0.6019
16877SOL     OW50808   2.589   1.406   6.803 -0.0814 -1.2407  0.1994
16877SOL    HW150809   2.621   1.486   6.855  2.1704 -1.2166 -1.1171
16877SOL    HW250810   2.559   1.335   6.867 -1.2903  0.2777  1.4132
16878SOL     OW50811   0.249   3.433   7.480 -0.5003  0.0597 -0.1408
16878SOL    HW150812   0.344   3.408   7.461 -0.4330  0.9797 -1.1613
16878SOL    HW250813   0.203   3.357   7.524  1.3342  0.4202  2.6567
16879SOL     OW50814   0.107   4.313   7.567  0.1569  0.8181  0.2210
16879SOL    HW150815   0.095   4.399   7.617  0.4924  2.1120 -1.7878
16879SOL    HW250816   0.154   4.247   7.625  0.4269  2.1817  1.6391
16880SOL     OW50817   8.845   8.627   6.652  0.1909  0.5201  0.2647
16880SOL    HW150818   8.936   8.603   6.620  0.0646 -0.5316  0.6601
16880SOL    HW250819   8.802   8.548   6.694 -1.8407  0.2566 -2.0360
16881SOL     OW50820   1.246   5.077   8.236 -0.1536 -0.5366  0.3325
16881SOL    HW150821   1.162   5.025   8.225  0.8338 -2.0679 -0.3494
16881SOL    HW250822   1.281   5.066   8.329  0.7664 -2.3026 -0.1806
16882SOL     OW50823   2.627   7.865   7.221 -0.1357  0.9260  0.1026
16882SOL    HW150824   2.628   7.802   7.144 -1.2871  1.1733 -0.1454
16882SOL    HW250825   2.582   7.821   7.299 -0.1788  1.1405  0.2001
16883SOL     OW50826   0.913   5.298   5.692  0.2834  0.1874  0.1828
16883SOL    HW150827   0.871   5.245   5.765 -1.0735  0.1063 -0.6225
16883SOL    HW250828   0.988   5.245   5.651 -1.1938 -1.2699 -0.7708
16884SOL     OW50829   5.275   3.939   2.076  0.2971  0.2961 -0.3793
16884SOL    HW150830   5.233   4.018   2.031 -0.1120 -1.7087 -3.9529
16884SOL    HW250831   5.363   3.920   2.033  0.4189 -1.1205  0.4486
16885SOL     OW50832   4.187   3.129   4.836 -0.0815  0.2501 -0.5669
16885SOL    HW150833   4.128   3.061   4.879  0.6339  0.6546  1.1407
16885SOL    HW250834   4.138   3.216   4.827  0.9066  1.4175  3.3677
16886SOL     OW50835   1.964   5.572   1.541  0.0197 -0.2324  0.2918
16886SOL    HW150836   1.950   5.658   1.491  1.0900 -0.4679 -0.4548
16886SOL    HW250837   2.054   5.534   1.518 -0.3293 -1.4303  0.8017
16887SOL     OW50838   6.928   1.037   4.098 -0.3338  0.1041  0.4093
16887SOL    HW150839   6.834   1.013   4.123 -0.0174 -2.7184 -0.7499
16887SOL    HW250840   6.935   1.045   3.998  0.9382 -1.3008  0.3532
16888SOL     OW50841   4.880   4.764   3.215 -0.3117  0.4222  0.0092
16888SOL    HW150842   4.830   4.706   3.151  2.5027  0.2038 -2.1574
16888SOL    HW250843   4.865   4.860   3.193 -0.0725  0.3732 -0.3555
16889SOL     OW50844   0.015   2.603   6.090 -0.0613 -0.4193  0.0279
16889SOL    HW150845  -0.057   2.666   6.122 -1.8510 -2.2571 -0.1815
16889SOL    HW250846   0.028   2.615   5.992  1.0191  0.9330  0.3060
16890SOL     OW50847   5.172   6.708   3.388  0.2383 -0.0538 -0.2631
16890SOL    HW150848   5.207   6.615   3.378  1.8907  0.4058  0.7937
16890SOL    HW250849   5.127   6.736   3.303 -1.3726 -2.1973 -0.1902
16891SOL     OW50850   5.477   6.493   7.196 -0.0478  0.4151 -0.5342
16891SOL    HW150851   5.577   6.487   7.199 -0.1321 -1.0614  1.4881
16891SOL    HW250852   5.438   6.401   7.202 -1.5446  1.0944  0.9344
16892SOL     OW50853   3.066   2.047   5.313 -0.2960 -0.3565  0.6701
16892SOL    HW150854   3.048   2.039   5.215 -2.8363 -0.7124  1.1204
16892SOL    HW250855   3.165   2.054   5.327  0.2885 -2.0590 -1.7870
16893SOL     OW50856   3.552   0.206   5.974 -0.7523  0.2163 -0.3951
16893SOL    HW150857   3.570   0.233   6.069 -0.5517  0.9951 -0.6472
16893SOL    HW250858   3.535   0.108   5.971  3.0492 -0.6456 -0.0328
16894SOL     OW50859   5.351   0.934   5.457  0.1445  0.3895  0.0180
16894SOL    HW150860   5.365   1.033   5.446  1.8115  0.1674 -0.0806
16894SOL    HW250861   5.393   0.886   5.381 -0.2167 -0.4304  0.3289
16895SOL     OW50862   7.569   0.663   3.769 -0.4144  0.0962 -0.6306
16895SOL    HW150863   7.532   0.571   3.757  0.9718 -0.2093 -3.1242
16895SOL    HW250864   7.623   0.666   3.853 -1.3125 -1.0512  0.0237
16896SOL     OW50865   7.620   8.765   3.785 -0.4523  0.1614 -0.4415
16896SOL    HW150866   7.569   8.707   3.848 -0.2566  0.0257 -0.4090
16896SOL    HW250867   7.627   8.721   3.696 -0.1302  0.0449 -0.3593
16897SOL     OW50868   7.687   5.032   5.991 -0.1605  0.4454  0.6251
16897SOL    HW150869   7.665   5.099   5.920 -2.7229 -2.7955 -1.9207
16897SOL    HW250870   7.661   5.070   6.080  0.7577  3.6508 -0.3097
16898SOL     OW50871   1.428   3.745   7.935 -0.3008 -0.0984  0.1178
16898SOL    HW150872   1.462   3.834   7.904 -1.8764  1.5834  2.8290
16898SOL    HW250873   1.341   3.726   7.890 -0.8763  0.6669  0.8750
16899SOL     OW50874   8.356   2.799   6.730  0.1669  0.3720 -0.1229
16899SOL    HW150875   8.396   2.836   6.646  1.2653  0.8387  0.5876
16899SOL    HW250876   8.317   2.709   6.711 -0.6271  0.9396 -1.3813
16900SOL     OW50877   8.500   0.539   8.647  0.2758 -0.0209  0.0089
16900SOL    HW150878   8.499   0.499   8.556 -1.0793  0.6808 -0.3007
16900SOL    HW250879   8.416   0.592   8.662  1.3148  1.4537  0.9555
16901SOL     OW50880   7.183   8.323   3.300  0.4368  0.1467  0.0841
16901SOL    HW150881   7.191   8.234   3.256  1.2077 -0.3882  1.2549
16901SOL    HW250882   7.165   8.310   3.398 -0.5055  1.2899  0.0816
16902SOL     OW50883   5.091   6.351   4.741 -0.4174 -0.0805  0.0402
16902SOL    HW150884   5.084   6.251   4.739 -0.7412 -0.0502 -1.4727
16902SOL    HW250885   5.188   6.377   4.744 -0.3041 -0.4462 -0.2654
16903SOL     OW50886   1.288   7.837   6.829 -0.4284 -0.1386 -0.1800
16903SOL    HW150887   1.333   7.926   6.837  0.8671 -0.5835 -1.7025
16903SOL    HW250888   1.244   7.830   6.739 -0.3844 -1.0615 -0.1436
16904SOL     OW50889   8.782   1.397   3.565 -0.0604  0.4220 -0.0022
16904SOL    HW150890   8.751   1.302   3.572  2.0311 -0.4822 -1.7373
16904SOL    HW250891   8.827   1.423   3.651 -2.9279  0.8247  1.4808
16905SOL     OW50892   6.473   8.122   7.568  0.2554 -0.2097 -0.7285
16905SOL    HW150893   6.496   8.025   7.566  0.5835 -0.1786  0.6361
16905SOL    HW250894   6.390   8.137   7.622  0.7462  0.3480 -0.1011
16906SOL     OW50895   7.644   5.903   7.684  0.0016  0.0851 -0.4652
16906SOL    HW150896   7.678   5.907   7.590  0.6051  1.4549 -0.2078
16906SOL    HW250897   7.715   5.934   7.747 -0.0889 -1.6813  0.5521
16907SOL     OW50898   0.768   4.884   6.222  0.0268  0.1361 -0.1569
16907SOL    HW150899   0.790   4.787   6.230  0.8943  0.4758  2.7082
16907SOL    HW250900   0.852   4.936   6.204 -0.1090  0.5094  0.2712
16908SOL     OW50901   0.243   0.373   8.589  0.1672 -0.1524  0.9002
16908SOL    HW150902   0.214   0.418   8.673  0.3749  1.3408  0.2100
16908SOL    HW250903   0.194   0.413   8.511  1.3738 -0.1693  0.1118
16909SOL     OW50904   1.397   0.162   7.788 -0.2095  0.2336 -0.4527
16909SOL    HW150905   1.396   0.071   7.746  0.6509  0.4071 -0.8742
16909SOL    HW250906   1.433   0.228   7.722  0.1339  0.7011  0.1893
16910SOL     OW50907   5.680   5.517   2.792 -0.3733  0.1429  0.1047
16910SOL    HW150908   5.612   5.591   2.793 -0.0599  0.5262 -1.8954
16910SOL    HW250909   5.645   5.439   2.740  0.0083 -0.3966  0.6395
16911SOL     OW50910   0.707   0.589   7.451 -0.8438  0.0721 -0.1824
16911SOL    HW150911   0.651   0.538   7.517 -1.6506  0.7992 -0.2922
16911SOL    HW250912   0.684   0.686   7.456  1.2706  0.5788  0.6112
16912SOL     OW50913   1.927   7.557   1.111  0.5087  0.3864 -0.2280
16912SOL    HW150914   1.833   7.586   1.098  0.2940  0.0487  0.5281
16912SOL    HW250915   1.970   7.613   1.182  0.9286  0.6296 -0.6602
16913SOL     OW50916   6.488   3.282   0.236 -0.5649 -0.0628 -0.1483
16913SOL    HW150917   6.428   3.318   0.164 -1.9539 -1.8964  0.0032
16913SOL    HW250918   6.445   3.202   0.277  0.6257  0.3744  2.1149
16914SOL     OW50919   5.451   1.359   8.478  0.0910  0.1857  0.6507
16914SOL    HW150920   5.542   1.317   8.477  0.2284  0.2958  3.0161
16914SOL    HW250921   5.454   1.445   8.428  0.7683 -0.6858 -0.9202
16915SOL     OW50922   5.531   1.476   6.145 -0.3894 -0.3466 -0.0038
16915SOL    HW150923   5.582   1.547   6.096 -1.9785  1.1972  0.4562
16915SOL    HW250924   5.461   1.519   6.202 -3.0102 -2.3350 -1.4813
16916SOL     OW50925   6.707   3.732   6.538 -0.4256 -0.4803 -0.1215
16916SOL    HW150926   6.618   3.776   6.554 -0.1893 -1.0098  3.4712
16916SOL    HW250927   6.705   3.640   6.576  1.3436 -0.8945 -0.9808
16917SOL     OW50928   8.673   8.800   8.005 -0.3858  0.1656 -0.2465
16917SOL    HW150929   8.580   8.828   7.980 -0.8959  1.3160  2.5397
16917SOL    HW250930   8.735   8.878   7.994 -0.6493  0.7385  1.9645
16918SOL     OW50931   7.412   0.558   1.260 -0.0298  0.1603 -0.0787
16918SOL    HW150932   7.331   0.579   1.204 -1.4982 -0.5655  1.6638
16918SOL    HW250933   7.460   0.643   1.282 -0.9488  0.7377 -0.2497
16919SOL     OW50934   2.465   8.532   3.651  0.2423  0.0134  0.3308
16919SOL    HW150935   2.513   8.456   3.607 -0.4540  0.3904 -1.1393
16919SOL    HW250936   2.405   8.576   3.584  1.1627  2.3204  0.9576
16920SOL     OW50937   5.749   2.902   0.763 -0.2568  0.8891  0.5267
16920SOL    HW150938   5.703   2.889   0.851 -1.0251 -3.1878 -0.2952
16920SOL    HW250939   5.686   2.946   0.699 -0.8821  0.7763  1.0548
16921SOL     OW50940   8.378   4.533   3.291 -0.3194 -0.2056 -0.3622
16921SOL    HW150941   8.354   4.621   3.333  0.6659 -0.8762  1.7662
16921SOL    HW250942   8.300   4.470   3.299 -1.0720  0.4567 -2.0041
16922SOL     OW50943   5.281   8.289   6.629 -0.3645 -0.4593 -0.4647
16922SOL    HW150944   5.256   8.253   6.539 -0.8962 -0.0524 -0.4848
16922SOL    HW250945   5.199   8.319   6.678  0.0978  1.8279 -0.9367
16923SOL     OW50946   8.732   8.679   5.620 -0.5592 -0.6569 -0.0934
16923SOL    HW150947   8.653   8.618   5.621  0.5185 -2.1846 -1.9095
16923SOL    HW250948   8.759   8.696   5.525  2.4206 -1.7295  0.4774
16924SOL     OW50949   3.507   2.639   0.966 -0.1464  0.2714 -0.4504
16924SOL    HW150950   3.522   2.640   1.065  0.7272  2.5010 -0.5512
16924SOL    HW250951   3.571   2.576   0.923 -0.1237 -0.2543  0.3365
16925SOL     OW50952   3.200   4.915   7.511  0.1999  0.2413  0.2167
16925SOL    HW150953   3.249   4.992   7.552  0.2447  0.3895 -0.1066
16925SOL    HW250954   3.203   4.924   7.411 -0.4316  0.2159  0.1908
16926SOL     OW50955   3.702   3.027   1.047  0.4140 -0.1096  0.1099
16926SOL    HW150956   3.668   2.971   0.971 -0.7770 -1.0504  1.2648
16926SOL    HW250957   3.637   3.101   1.066  1.7188  1.3909 -1.0620
16927SOL     OW50958   3.797   5.861   5.483 -0.2493  0.0818  0.3009
16927SOL    HW150959   3.734   5.927   5.524  2.2257  1.3469  2.3219
16927SOL    HW250960   3.849   5.905   5.410 -2.6681 -1.4135 -2.5720
16928SOL     OW50961   1.801   5.238   4.533 -0.2399  0.0018  0.2247
16928SOL    HW150962   1.787   5.299   4.611 -2.0694  0.6896 -0.5700
16928SOL    HW250963   1.849   5.156   4.563 -2.0693 -0.3760  2.3898
16929SOL     OW50964   2.312   8.725   3.036 -0.1752  0.3348  0.7194
16929SOL    HW150965   2.333   8.817   3.067  1.3197 -0.2835  1.6885
16929SOL    HW250966   2.392   8.686   2.990 -0.4675 -0.7806  1.1100
16930SOL     OW50967   6.712   5.679   7.635  0.2698 -0.3669 -0.2336
16930SOL    HW150968   6.618   5.714   7.637  0.3314 -0.2090 -0.1846
16930SOL    HW250969   6.715   5.600   7.573 -0.1472 -1.0962  0.6437
16931SOL     OW50970   0.872   0.944   0.413  0.0023 -0.7035 -0.0196
16931SOL    HW150971   0.894   1.041   0.415  0.0654 -0.7283  0.7234
16931SOL    HW250972   0.934   0.897   0.350  0.7898 -0.4573  0.5586
16932SOL     OW50973   0.253   3.371   5.790  0.6363 -0.0514 -0.0735
16932SOL    HW150974   0.341   3.367   5.743  0.9040  1.8279  0.1953
16932SOL    HW250975   0.183   3.402   5.726  0.3675 -0.4920 -0.0008
16933SOL     OW50976   1.123   7.233   6.786 -0.4465  0.2452  0.2277
16933SOL    HW150977   1.139   7.152   6.843 -0.5428  0.3935  0.4660
16933SOL    HW250978   1.032   7.229   6.746  0.5908 -1.2195 -2.1357
16934SOL     OW50979   8.611   8.181   5.095 -0.0341  0.4083  0.2698
16934SOL    HW150980   8.656   8.205   5.181 -1.8419 -0.6960  1.6061
16934SOL    HW250981   8.667   8.211   5.018  3.2786 -1.3573  1.7596
16935SOL     OW50982   1.212   1.664   7.104  0.2963 -0.0544  1.0582
16935SOL    HW150983   1.287   1.678   7.169  1.3796 -1.1808  0.1044
16935SOL    HW250984   1.243   1.605   7.030 -1.3514  0.0182  0.2673
16936SOL     OW50985   7.747   0.723   4.014 -0.0476  0.1696  0.2943
16936SOL    HW150986   7.844   0.699   4.020 -0.3287 -1.3930 -0.6915
16936SOL    HW250987   7.702   0.702   4.101  0.1427 -1.0356  0.1312
16937SOL     OW50988   0.117   7.193   6.994 -0.7394  0.2792  0.1838
16937SOL    HW150989   0.053   7.228   6.926 -1.4416 -0.9483  0.1991
16937SOL    HW250990   0.166   7.114   6.958  1.0359  1.3738  0.0596
16938SOL     OW50991   4.875   6.117   2.801 -0.4357  0.1634  0.0922
16938SOL    HW150992   4.923   6.198   2.766  0.0293 -0.6572 -1.2562
16938SOL    HW250993   4.798   6.146   2.857 -0.0835  1.5380 -0.0838
16939SOL     OW50994   1.045   6.588   3.090  0.1741 -0.3482 -1.0819
16939SOL    HW150995   0.963   6.558   3.139  0.2954  1.2972  0.2231
16939SOL    HW250996   1.020   6.616   2.998 -0.4275 -1.4228 -1.2715
16940SOL     OW50997   7.690   5.863   7.033  0.2718  0.1084 -0.1882
16940SOL    HW150998   7.670   5.960   7.046  2.2454  0.5970 -0.4795
16940SOL    HW250999   7.711   5.845   6.937  0.1236 -0.5726 -0.1016
16941SOL     OW51000   6.610   8.296   3.733 -0.4960  0.3092 -0.1104
16941SOL    HW151001   6.580   8.201   3.731  3.0032 -0.9027 -0.8835
16941SOL    HW251002   6.641   8.324   3.643 -0.8790  2.0209  0.2442
16942SOL     OW51003   4.683   1.049   4.628  0.2932  0.0423  0.6410
16942SOL    HW151004   4.765   1.064   4.573  0.5288  0.3275  1.0684
16942SOL    HW251005   4.708   1.038   4.724 -0.2901  1.7145  1.0115
16943SOL     OW51006   2.329   2.900   3.368  0.3996  0.2244  0.0348
16943SOL    HW151007   2.331   2.909   3.468  2.1911  0.8036 -0.0159
16943SOL    HW251008   2.420   2.878   3.335 -0.2391 -0.2791 -1.4651
16944SOL     OW51009   4.034   3.066   0.341  0.0120  0.2582 -0.2067
16944SOL    HW151010   4.096   3.037   0.415 -0.2974 -0.5014 -0.2310
16944SOL    HW251011   4.084   3.124   0.277  0.7899 -0.5563 -0.3721
16945SOL     OW51012   8.518   4.463   2.933 -0.0299 -0.0669  1.1909
16945SOL    HW151013   8.487   4.558   2.947  2.5389  0.7475  2.0404
16945SOL    HW251014   8.507   4.438   2.837  1.0261  1.8290  0.5252
16946SOL     OW51015   4.562   6.067   6.261  0.1797 -1.0585  0.1870
16946SOL    HW151016   4.631   6.021   6.206 -0.4513 -0.9617 -0.7001
16946SOL    HW251017   4.471   6.034   6.235 -0.2091 -0.1269  0.3300
16947SOL     OW51018   6.489   8.280   1.217  0.4904 -0.0696  0.3282
16947SOL    HW151019   6.451   8.332   1.294 -0.8804  1.0097 -1.0292
16947SOL    HW251020   6.419   8.268   1.147  2.6524  2.3372 -2.4817
16948SOL     OW51021   3.622   1.334   7.926  0.0804 -0.2299 -0.3793
16948SOL    HW151022   3.719   1.353   7.908  0.2203 -1.0149 -0.5148
16948SOL    HW251023   3.613   1.292   8.017 -0.2612  0.7970  0.0800
16949SOL     OW51024   4.481   3.118   5.540 -0.3515  0.1207 -0.4434
16949SOL    HW151025   4.463   3.109   5.637  0.2226 -0.2912 -0.3729
16949SOL    HW251026   4.523   3.208   5.522 -0.1866  0.0788 -0.2694
16950SOL     OW51027   1.641   5.779   2.684  0.4409  0.1836  0.4803
16950SOL    HW151028   1.639   5.729   2.771  0.7147  0.2978  0.5521
16950SOL    HW251029   1.629   5.877   2.703 -0.1848  0.1441  0.3350
16951SOL     OW51030   1.256   4.992   3.797 -0.1879  0.3710  0.5755
16951SOL    HW151031   1.243   4.963   3.892 -2.4026  1.5652  0.7035
16951SOL    HW251032   1.214   5.082   3.784 -1.0775 -0.3166 -1.8379
16952SOL     OW51033   4.150   8.752   5.376  0.1182 -0.4234 -0.3625
16952SOL    HW151034   4.241   8.737   5.415  0.6517 -1.5470 -1.9367
16952SOL    HW251035   4.110   8.664   5.350 -1.5981  0.0178  0.6052
16953SOL     OW51036   0.714   3.897   8.525 -0.0088  0.1021  0.4375
16953SOL    HW151037   0.614   3.888   8.529 -0.1472  1.5255  1.0615
16953SOL    HW251038   0.741   3.978   8.577  1.3624  0.4696 -0.8039
16954SOL     OW51039   6.750   6.574   6.284 -0.0253 -0.2495  0.4491
16954SOL    HW151040   6.721   6.510   6.213  2.1497 -1.4800  0.5830
16954SOL    HW251041   6.697   6.659   6.277 -0.7518 -0.8306 -1.8016
16955SOL     OW51042   7.277   6.194   2.936  0.1748 -0.0607 -0.0438
16955SOL    HW151043   7.287   6.243   3.023 -1.4316 -1.2410  0.8605
16955SOL    HW251044   7.344   6.120   2.931 -0.5846 -0.8280  0.8235
16956SOL     OW51045   1.432   2.187   7.711  0.3708  0.7968 -0.3474
16956SOL    HW151046   1.429   2.166   7.613 -0.4548  1.7886 -0.5605
16956SOL    HW251047   1.355   2.142   7.757 -0.9179  2.5562 -0.6676
16957SOL     OW51048   5.708   8.397   1.178 -0.5607  0.4322 -0.2191
16957SOL    HW151049   5.614   8.363   1.186  0.2830 -2.3796 -0.8858
16957SOL    HW251050   5.734   8.443   1.262 -1.7362 -0.9784  0.9763
16958SOL     OW51051   8.843   5.660   6.573 -1.1250 -0.6761  0.1895
16958SOL    HW151052   8.810   5.569   6.549  1.5861 -1.6948 -0.0192
16958SOL    HW251053   8.902   5.654   6.654 -2.8373  1.3331  1.7066
16959SOL     OW51054   0.908   4.648   0.239  0.3532  0.3151  0.1434
16959SOL    HW151055   0.907   4.696   0.152  2.3291 -2.6898 -1.7489
16959SOL    HW251056   0.815   4.622   0.265 -0.1694  0.2459 -1.6916
16960SOL     OW51057   2.215   0.418   8.053  0.0784 -0.3931  0.3568
16960SOL    HW151058   2.137   0.468   8.016  1.0103 -0.4911 -1.9092
16960SOL    HW251059   2.200   0.400   8.151 -1.9500  1.0030  0.3651
16961SOL     OW51060   4.613   2.461   3.021 -0.0568  0.5070 -0.0241
16961SOL    HW151061   4.662   2.404   3.087 -0.6559 -0.7161 -0.5931
16961SOL    HW251062   4.676   2.525   2.979  0.6847  0.1500  0.5115
16962SOL     OW51063   7.674   1.687   5.631 -0.2188  0.0187 -0.7193
16962SOL    HW151064   7.599   1.650   5.686 -0.7468  0.7458 -0.9246
16962SOL    HW251065   7.715   1.615   5.576 -2.5650  0.0265 -2.6939
16963SOL     OW51066   4.987   1.187   2.549 -0.8328 -0.6550  0.1313
16963SOL    HW151067   4.938   1.228   2.625 -1.2599  0.1474 -0.5616
16963SOL    HW251068   4.938   1.106   2.517 -1.0236 -0.5877  0.2541
16964SOL     OW51069   7.013   7.054   6.051 -0.3436  0.4269 -0.5365
16964SOL    HW151070   6.936   7.005   6.092 -0.9596  0.4016 -1.7165
16964SOL    HW251071   7.075   7.083   6.124 -1.8070  1.0738  0.5071
16965SOL     OW51072   1.239   3.665   8.191 -0.0464 -0.0574 -0.1074
16965SOL    HW151073   1.279   3.573   8.196 -0.2652 -0.0834  2.0221
16965SOL    HW251074   1.168   3.674   8.260 -0.8567  1.3635 -1.0716
16966SOL     OW51075   5.594   2.715   0.154  0.0466 -0.2337 -0.9075
16966SOL    HW151076   5.557   2.794   0.105 -0.3162 -0.0616 -0.3716
16966SOL    HW251077   5.642   2.747   0.236 -0.5375 -0.5893 -0.4132
16967SOL     OW51078   0.721   1.233   1.135  0.3193 -0.1488 -0.1938
16967SOL    HW151079   0.786   1.170   1.091 -0.4019  0.4250 -2.1731
16967SOL    HW251080   0.645   1.250   1.073 -0.4966  1.1309  1.1202
16968SOL     OW51081   2.394   1.772   3.279  0.1757 -0.1590  0.5720
16968SOL    HW151082   2.371   1.824   3.197  2.7122  0.9858  0.4939
16968SOL    HW251083   2.310   1.741   3.323 -1.2700 -0.5844 -2.2579
16969SOL     OW51084   0.532   6.986   8.236 -0.6669  0.1857  0.7950
16969SOL    HW151085   0.487   6.919   8.177 -0.2025  0.6079 -0.0606
16969SOL    HW251086   0.617   7.016   8.194 -1.1129  1.7067  0.8968
16970SOL     OW51087   5.096   8.580   8.112 -0.2434 -0.0643  0.1361
16970SOL    HW151088   5.063   8.486   8.125 -0.5921  0.3745  3.2381
16970SOL    HW251089   5.194   8.583   8.131 -0.4483  0.3458  1.2148
16971SOL     OW51090   7.090   7.031   1.464 -0.3137 -0.1592  0.7476
16971SOL    HW151091   7.030   7.095   1.512 -1.2785 -0.8389  0.4927
16971SOL    HW251092   7.046   6.941   1.461  0.4980 -0.5448  0.0926
16972SOL     OW51093   5.327   7.660   5.645  0.6489  0.2523 -0.5623
16972SOL    HW151094   5.237   7.660   5.601  0.6251 -0.7432 -0.5399
16972SOL    HW251095   5.369   7.570   5.634  1.9264  0.8993 -1.1325
16973SOL     OW51096   3.416   1.859   2.581  0.0089  0.6080 -0.8110
16973SOL    HW151097   3.345   1.912   2.535 -1.5527 -0.0692  0.7163
16973SOL    HW251098   3.385   1.835   2.673  2.4786  0.7753  0.1317
16974SOL     OW51099   2.226   2.258   5.336  0.1917 -0.3629 -0.0743
16974SOL    HW151100   2.316   2.301   5.331  0.2883 -0.3677  1.2413
16974SOL    HW251101   2.176   2.276   5.252  0.7105  1.2395 -0.0687
16975SOL     OW51102   2.333   3.796   5.477 -0.3970 -0.2890 -0.3692
16975SOL    HW151103   2.319   3.800   5.576 -2.5737 -0.5020 -0.6113
16975SOL    HW251104   2.366   3.705   5.451 -0.4536 -0.4417  0.0960
16976SOL     OW51105   5.210   2.248   6.068  0.2328  0.2611 -0.1198
16976SOL    HW151106   5.219   2.326   6.006 -1.8255  0.5218 -0.1434
16976SOL    HW251107   5.162   2.173   6.023  0.7150 -0.4159  0.4473
16977SOL     OW51108   3.629   6.806   1.160  0.3841  0.3548  0.3862
16977SOL    HW151109   3.660   6.791   1.254 -0.4253  0.3248  0.6630
16977SOL    HW251110   3.610   6.718   1.117  0.3750  0.3849  0.3300
16978SOL     OW51111   2.545   6.328   6.027  0.0513 -0.6498  0.0121
16978SOL    HW151112   2.585   6.267   5.959  0.8893 -0.0622 -0.0361
16978SOL    HW251113   2.601   6.327   6.110  0.2509  0.2586 -0.0922
16979SOL     OW51114   4.266   4.220   4.978  0.1331 -0.2075  0.3769
16979SOL    HW151115   4.252   4.269   4.892 -0.9854 -0.1760  0.5588
16979SOL    HW251116   4.222   4.130   4.972  0.4699 -0.4012  0.7532
16980SOL     OW51117   4.235   4.309   7.399  0.7907 -0.7632 -0.1304
16980SOL    HW151118   4.250   4.214   7.428  1.1673 -0.6349  0.1159
16980SOL    HW251119   4.322   4.359   7.405  0.6875 -0.5128 -0.6702
16981SOL     OW51120   2.008   7.550   8.560 -0.1677  0.4768 -0.2397
16981SOL    HW151121   2.033   7.479   8.626 -1.0849 -0.8547 -1.2638
16981SOL    HW251122   2.069   7.629   8.572  2.1175 -1.1717 -0.2478
16982SOL     OW51123   5.498   8.464   1.448 -0.2357 -0.3420  0.3123
16982SOL    HW151124   5.464   8.546   1.495 -0.6662 -0.4259  0.1515
16982SOL    HW251125   5.598   8.466   1.446 -0.1892 -0.5890  1.6803
16983SOL     OW51126   3.657   2.811   5.698 -0.5894 -0.4373  0.5225
16983SOL    HW151127   3.671   2.812   5.797  0.3366 -1.0279  0.4136
16983SOL    HW251128   3.667   2.904   5.662 -0.4115 -0.3015  0.9203
16984SOL     OW51129   1.708   6.120   6.885  0.6843  1.2745 -0.3994
16984SOL    HW151130   1.703   6.054   6.960  0.5088  0.9291 -0.7115
16984SOL    HW251131   1.789   6.101   6.829  0.1345  0.7363 -1.0277
16985SOL     OW51132   5.570   7.938   2.874 -0.0316 -0.1102 -1.0468
16985SOL    HW151133   5.565   7.849   2.828 -1.9022 -0.6568  0.1105
16985SOL    HW251134   5.498   7.997   2.840 -0.4295  0.0423  0.0212
16986SOL     OW51135   7.416   6.384   8.206 -0.0041  0.4720  0.1996
16986SOL    HW151136   7.325   6.389   8.166 -0.2495 -0.5341  0.5879
16986SOL    HW251137   7.485   6.383   8.133 -0.3813 -0.0403 -0.1597
16987SOL     OW51138   7.420   2.222   0.096  0.1124 -0.4102 -0.1601
16987SOL    HW151139   7.432   2.193   0.001 -1.8340 -1.2708 -0.1920
16987SOL    HW251140   7.333   2.270   0.106  1.9438  3.1100  0.4963
16988SOL     OW51141   1.942   3.288   3.078 -0.0150 -0.6134  0.2147
16988SOL    HW151142   2.017   3.259   3.018 -1.0175 -1.3085 -0.7483
16988SOL    HW251143   1.977   3.301   3.171  1.7803  1.3863 -0.6557
16989SOL     OW51144   4.276   4.075   8.638 -0.3421 -0.1403 -0.3442
16989SOL    HW151145   4.232   4.037   8.719 -1.7512  0.9588 -0.5532
16989SOL    HW251146   4.356   4.020   8.614 -1.8023 -2.4871 -0.1713
16990SOL     OW51147   3.923   5.685   6.934  0.6244  0.4084 -0.1801
16990SOL    HW151148   3.880   5.741   6.864  1.7421  0.2269 -1.0427
16990SOL    HW251149   4.020   5.673   6.913  0.8738 -0.0937  1.1199
16991SOL     OW51150   5.307   0.179   2.794  0.1783  0.0797 -0.1783
16991SOL    HW151151   5.307   0.229   2.707  2.8928 -0.0165 -0.3214
16991SOL    HW251152   5.255   0.231   2.862  3.0064  3.3583 -0.2486
16992SOL     OW51153   0.448   8.008   5.074 -0.0198 -0.1565  0.1820
16992SOL    HW151154   0.388   8.024   4.995  0.1035  0.0774  0.1328
16992SOL    HW251155   0.543   8.003   5.043 -0.1052 -1.7169  0.1023
16993SOL     OW51156   4.236   2.712   1.591  0.1593 -0.3136  0.4195
16993SOL    HW151157   4.179   2.738   1.514 -0.0600 -1.4931  0.1551
16993SOL    HW251158   4.254   2.791   1.649 -0.6779  0.3288 -0.1898
16994SOL     OW51159   4.271   2.709   5.361 -0.4478 -0.0157  0.7085
16994SOL    HW151160   4.265   2.611   5.377 -1.3605 -0.3216 -1.1692
16994SOL    HW251161   4.365   2.740   5.374  0.2243 -1.4971 -0.3711
16995SOL     OW51162   1.085   1.748   6.558 -0.0345  0.0842 -0.3700
16995SOL    HW151163   1.043   1.775   6.645 -0.6344  0.1464 -0.6738
16995SOL    HW251164   1.054   1.810   6.486  0.5436  0.0956 -0.6144
16996SOL     OW51165   6.890   7.406   1.842  0.7488 -0.0172  0.2200
16996SOL    HW151166   6.793   7.407   1.867  0.9701 -2.0271  1.3318
16996SOL    HW251167   6.911   7.321   1.793  1.9062  0.5443 -0.2888
16997SOL     OW51168   7.576   2.767   3.355  0.2554  0.0628  0.5885
16997SOL    HW151169   7.505   2.759   3.425  0.3015 -0.2379  0.5983
16997SOL    HW251170   7.541   2.731   3.268 -0.0693  1.1110  0.2645
16998SOL     OW51171   0.722   6.703   5.270  0.1530  0.0461 -0.0893
16998SOL    HW151172   0.806   6.653   5.293  0.6141  1.1907  0.8598
16998SOL    HW251173   0.718   6.719   5.172  1.2936  0.3633 -0.0985
16999SOL     OW51174   8.858   5.056   8.190 -0.3323  0.9956  0.2016
16999SOL    HW151175   8.894   5.146   8.166 -2.1059  1.8647  0.6772
16999SOL    HW251176   8.765   5.046   8.156  0.1719 -1.0872 -0.7482
17000SOL     OW51177   2.226   6.581   3.257  0.0181  0.0097  0.5993
17000SOL    HW151178   2.289   6.574   3.334 -1.4071  0.2708  1.8624
17000SOL    HW251179   2.178   6.669   3.262 -1.7864 -0.9360  0.8099
17001SOL     OW51180   4.617   6.540   6.741  0.4280 -0.8286  0.1787
17001SOL    HW151181   4.650   6.565   6.832  0.5321 -1.6678  0.3801
17001SOL    HW251182   4.552   6.464   6.749  2.1422 -2.4658 -0.6052
17002SOL     OW51183   6.355   0.270   1.999 -0.1845 -0.0943  0.1242
17002SOL    HW151184   6.336   0.356   2.046  0.2001  0.1490 -0.1611
17002SOL    HW251185   6.453   0.262   1.981 -0.1506 -0.8278  0.5936
17003SOL     OW51186   7.050   3.446   0.076  0.2425  0.1487  0.6304
17003SOL    HW151187   7.094   3.514   0.017 -2.0467  1.0641 -0.1592
17003SOL    HW251188   7.061   3.355   0.037 -1.0201  0.7109 -1.1393
17004SOL     OW51189   2.504   0.980   2.508  0.4760 -0.0872 -0.2725
17004SOL    HW151190   2.515   0.991   2.607  1.3206 -4.3647  0.2726
17004SOL    HW251191   2.594   0.981   2.464  0.2370  0.0190 -0.7706
17005SOL     OW51192   3.904   5.762   7.511 -0.0588  0.0930  0.3098
17005SOL    HW151193   3.989   5.815   7.517  0.2478 -0.3274 -0.2360
17005SOL    HW251194   3.899   5.697   7.587  0.6029 -0.5852 -0.2128
17006SOL     OW51195   2.088   2.575   4.972 -0.6359  0.1662 -0.2625
17006SOL    HW151196   1.999   2.581   4.927 -0.0081 -0.9336 -1.7521
17006SOL    HW251197   2.158   2.550   4.904  0.9326  1.6414  0.7381
17007SOL     OW51198   7.459   7.796   1.081  0.7902 -0.0060 -0.2029
17007SOL    HW151199   7.550   7.794   1.038  1.6740  0.9434  1.5308
17007SOL    HW251200   7.449   7.715   1.139  0.6678  0.0550 -0.1393
17008SOL     OW51201   1.487   8.441   8.314 -0.0697  0.2066  0.2011
17008SOL    HW151202   1.443   8.471   8.398  0.2293 -3.3112  1.8032
17008SOL    HW251203   1.425   8.383   8.262  0.5848  0.3163 -0.7333
17009SOL     OW51204   5.858   6.295   0.373  0.2827  0.7759 -0.4891
17009SOL    HW151205   5.793   6.284   0.298  1.1355 -1.7863 -0.9640
17009SOL    HW251206   5.826   6.366   0.435 -3.6256 -1.1178 -0.0554
17010SOL     OW51207   4.343   3.800   1.640  0.2350 -0.1323 -0.0005
17010SOL    HW151208   4.409   3.871   1.617 -0.3915  0.3693 -0.2957
17010SOL    HW251209   4.257   3.818   1.592  0.2940 -1.5095 -0.6765
17011SOL     OW51210   7.513   5.065   1.540 -0.3701  0.1690 -0.1246
17011SOL    HW151211   7.441   5.132   1.559 -0.4675  0.2637 -0.8047
17011SOL    HW251212   7.515   5.045   1.442  1.6797  1.5072 -0.4232
17012SOL     OW51213   6.642   6.296   4.698 -0.5556  0.7098  0.2588
17012SOL    HW151214   6.588   6.298   4.782 -1.7699 -1.0856 -0.4291
17012SOL    HW251215   6.739   6.293   4.721 -0.8691  0.4590  1.6088
17013SOL     OW51216   5.542   1.225   3.169  0.4682 -0.4252  0.0178
17013SOL    HW151217   5.505   1.264   3.085  1.1420  1.7467  0.6567
17013SOL    HW251218   5.476   1.237   3.243  0.1355 -1.7659 -0.0364
17014SOL     OW51219   6.186   1.502   1.162 -0.3171  0.5789 -0.4043
17014SOL    HW151220   6.243   1.480   1.083 -0.2357 -2.9142  0.4909
17014SOL    HW251221   6.154   1.418   1.205 -3.3610  2.3696  1.1995
17015SOL     OW51222   1.304   2.507   6.234 -0.5449 -0.1003  0.0273
17015SOL    HW151223   1.227   2.506   6.171  1.3357 -1.7785 -2.4847
17015SOL    HW251224   1.365   2.583   6.211 -0.8487  0.5318  1.2408
17016SOL     OW51225   1.358   6.211   2.261  0.2649  0.1741  0.2112
17016SOL    HW151226   1.273   6.176   2.221  0.3090 -0.1860  0.4256
17016SOL    HW251227   1.406   6.269   2.194 -0.8778  1.6081  0.5823
17017SOL     OW51228   3.440   3.457   3.680  0.5985 -0.0255 -0.0426
17017SOL    HW151229   3.500   3.383   3.650  0.0108  0.3269 -2.2106
17017SOL    HW251230   3.346   3.425   3.682  0.4433  0.4176 -0.1273
17018SOL     OW51231   8.514   0.831   5.328 -0.4612  0.0208  0.0982
17018SOL    HW151232   8.554   0.762   5.268 -2.6287 -1.1141 -0.1475
17018SOL    HW251233   8.530   0.922   5.290 -1.2864 -0.6296 -1.9135
17019SOL     OW51234   8.117   5.467   8.516 -0.5597 -0.3080  0.8433
17019SOL    HW151235   8.046   5.476   8.587 -1.9215 -2.3438 -0.1565
17019SOL    HW251236   8.124   5.371   8.488  1.8412  0.0222  0.0795
17020SOL     OW51237   5.073   5.460   6.227 -0.1710 -0.3815  0.0190
17020SOL    HW151238   4.985   5.467   6.182 -0.6132 -1.1393  0.7380
17020SOL    HW251239   5.145   5.495   6.166 -0.6599 -1.9281 -1.5061
17021SOL     OW51240   3.905   3.657   6.213 -0.0573 -0.0237 -0.3368
17021SOL    HW151241   3.940   3.569   6.182 -0.3961 -0.4709  0.5491
17021SOL    HW251242   3.817   3.645   6.259  0.3038  0.6600  0.5697
17022SOL     OW51243   2.754   8.388   4.996 -0.2868  0.3267  0.0812
17022SOL    HW151244   2.779   8.472   4.948 -0.9694  0.2342 -0.4639
17022SOL    HW251245   2.781   8.394   5.092  1.6293  0.2910 -0.4337
17023SOL     OW51246   8.730   5.716   1.897 -0.0867  0.3675  0.0826
17023SOL    HW151247   8.744   5.764   1.811  0.8680 -0.2195 -0.1044
17023SOL    HW251248   8.818   5.679   1.929 -0.7898 -1.2614  0.1995
17024SOL     OW51249   6.752   5.826   2.647 -0.0587 -0.1518  0.1597
17024SOL    HW151250   6.721   5.905   2.593  0.5472  0.8628  1.2534
17024SOL    HW251251   6.740   5.743   2.593 -0.6543  0.6836 -1.0557
17025SOL     OW51252   2.546   0.587   3.582  0.3279 -0.4690 -0.7810
17025SOL    HW151253   2.597   0.586   3.669 -2.0245 -2.9124  0.7596
17025SOL    HW251254   2.484   0.665   3.580 -1.6461 -1.8446  1.2144
17026SOL     OW51255   8.469   2.085   2.929 -0.4149 -0.5626 -0.3196
17026SOL    HW151256   8.429   2.147   2.997  0.0484 -0.1294 -0.4324
17026SOL    HW251257   8.552   2.044   2.966  0.6156  0.7273 -1.0826
17027SOL     OW51258   6.427   1.690   1.861 -0.0773  0.7140 -0.0825
17027SOL    HW151259   6.368   1.769   1.877 -2.6850 -1.3965  1.4529
17027SOL    HW251260   6.384   1.629   1.795  1.2699 -0.0497 -0.2890
17028SOL     OW51261   8.203   4.126   5.070 -0.1726  0.4275 -0.5321
17028SOL    HW151262   8.263   4.146   4.993 -1.5188  1.1236 -1.4513
17028SOL    HW251263   8.173   4.030   5.064  2.0106 -0.3915  0.8098
17029SOL     OW51264   4.546   1.906   0.605  0.4870 -0.6193  0.2082
17029SOL    HW151265   4.616   1.867   0.665 -0.1367 -0.4613  1.0542
17029SOL    HW251266   4.491   1.972   0.656  0.3729  0.0209 -0.7215
17030SOL     OW51267   5.170   0.682   1.528 -0.0052  0.3359 -0.2500
17030SOL    HW151268   5.269   0.690   1.541 -0.1973 -0.0738  1.7937
17030SOL    HW251269   5.133   0.767   1.491  1.0947  0.4621 -1.1132
17031SOL     OW51270   3.352   6.110   8.272 -1.0836  0.5074  0.4765
17031SOL    HW151271   3.313   6.116   8.181 -1.5099  1.0751  0.6846
17031SOL    HW251272   3.288   6.064   8.334 -0.1479 -1.3282  0.1600
17032SOL     OW51273   7.510   2.205   6.562 -0.6501 -0.7101  0.2450
17032SOL    HW151274   7.526   2.245   6.472 -0.5017 -2.4414 -0.5352
17032SOL    HW251275   7.589   2.149   6.588 -0.3115  0.4367  1.8646
17033SOL     OW51276   1.940   2.724   3.490  0.4053 -0.0893  0.5737
17033SOL    HW151277   1.873   2.767   3.429 -0.0561  1.3837  2.0340
17033SOL    HW251278   1.908   2.633   3.516 -0.4862  0.1554  0.3732
17034SOL     OW51279   1.692   5.935   7.692 -0.6166 -0.8922 -0.3171
17034SOL    HW151280   1.736   5.972   7.775 -2.6829 -0.8913  0.8500
17034SOL    HW251281   1.711   5.995   7.615  2.6502 -1.6856 -0.2799
17035SOL     OW51282   8.827   2.935   5.717 -0.2637  0.1135  0.2750
17035SOL    HW151283   8.864   2.945   5.810 -0.9085 -1.7715  0.7792
17035SOL    HW251284   8.744   2.879   5.720 -2.0801  2.5514 -1.0921
17036SOL     OW51285   3.060   7.422   4.419  0.0351 -0.8335  0.4985
17036SOL    HW151286   3.099   7.330   4.412  1.1061 -0.4216  0.8547
17036SOL    HW251287   3.062   7.452   4.514  0.4110 -0.1517  0.2864
17037SOL     OW51288   5.990   4.705   2.448 -0.1088 -0.4388  0.5529
17037SOL    HW151289   5.988   4.640   2.372  1.8901 -1.8003  1.5680
17037SOL    HW251290   6.077   4.753   2.449 -0.3110 -0.0536  1.6836
17038SOL     OW51291   7.611   0.519   5.514 -0.3213  0.3218 -0.7893
17038SOL    HW151292   7.579   0.475   5.429 -1.7651  0.0002 -0.1174
17038SOL    HW251293   7.673   0.457   5.561 -3.5151 -1.9097  0.9312
17039SOL     OW51294   0.075   8.078   7.526 -0.0818 -0.2566  0.2057
17039SOL    HW151295   0.065   8.082   7.426  0.1133 -1.7083  0.1159
17039SOL    HW251296   0.167   8.047   7.549  0.0992  0.7140  0.8641
17040SOL     OW51297   0.246   6.009   1.024  0.1852  0.1280  0.1183
17040SOL    HW151298   0.168   6.053   1.067  0.1997 -0.0355  0.3113
17040SOL    HW251299   0.280   5.935   1.082 -0.5575 -0.9086 -0.7249
17041SOL     OW51300   8.757   2.942   3.582 -0.0462  0.5961  0.4455
17041SOL    HW151301   8.840   2.888   3.590 -0.5825 -0.1187  1.4468
17041SOL    HW251302   8.764   3.004   3.504  0.7387 -0.6472 -0.4959
17042SOL     OW51303   3.736   1.977   6.380  0.2530  0.8462 -0.2286
17042SOL    HW151304   3.658   1.934   6.334  0.3892  0.0324  0.2712
17042SOL    HW251305   3.802   2.008   6.312 -0.4038  1.3425 -0.6462
17043SOL     OW51306   8.808   3.365   7.644 -0.4148 -0.4727  0.7643
17043SOL    HW151307   8.886   3.308   7.615 -0.4473 -0.2721  0.2829
17043SOL    HW251308   8.735   3.357   7.577 -0.4915 -0.0055  0.7953
17044SOL     OW51309   7.021   4.847   2.059  0.4520 -0.4458 -0.1128
17044SOL    HW151310   7.066   4.908   2.124  1.1297 -1.4536  0.4042
17044SOL    HW251311   7.044   4.874   1.965 -0.3762  0.9007  0.0398
17045SOL     OW51312   3.472   3.229   4.084 -0.2685 -0.5868  0.2242
17045SOL    HW151313   3.466   3.318   4.038  0.6982 -0.6130  0.0247
17045SOL    HW251314   3.568   3.202   4.092 -0.4383 -0.8693  1.7098
17046SOL     OW51315   2.832   4.235   7.023  0.0421  0.3570  0.1276
17046SOL    HW151316   2.803   4.292   6.946  1.3882  1.0588  0.1027
17046SOL    HW251317   2.794   4.143   7.013 -1.3776  0.9743 -0.3395
17047SOL     OW51318   5.613   5.576   1.121 -0.0439 -0.0684  0.1550
17047SOL    HW151319   5.580   5.660   1.165  0.2178 -0.9182  2.0969
17047SOL    HW251320   5.712   5.582   1.108 -0.4620  1.4999 -3.4661
17048SOL     OW51321   6.020   1.606   5.773  0.6804 -0.1774 -0.3008
17048SOL    HW151322   5.974   1.589   5.860 -0.5143  0.2090 -0.8334
17048SOL    HW251323   6.014   1.704   5.751  0.6087 -0.3324 -1.0058
17049SOL     OW51324   7.556   2.789   6.295 -0.0278 -0.1791 -0.0930
17049SOL    HW151325   7.606   2.705   6.275  0.7795 -0.1234  1.5139
17049SOL    HW251326   7.599   2.865   6.247  1.9105 -0.0337  1.7287
17050SOL     OW51327   0.066   2.327   6.474 -0.3091 -0.1311 -0.1203
17050SOL    HW151328   0.095   2.298   6.383  0.5234 -1.1713  0.4495
17050SOL    HW251329   0.026   2.418   6.469  1.0915  0.4537 -1.3039
17051SOL     OW51330   6.407   2.239   6.947 -0.0970  0.2279 -0.4419
17051SOL    HW151331   6.490   2.294   6.952 -0.6919  1.2048 -0.9892
17051SOL    HW251332   6.368   2.228   7.038 -0.2328  1.1385 -0.3801
17052SOL     OW51333   0.807   1.589   7.730 -0.7041 -0.0646  0.1405
17052SOL    HW151334   0.889   1.575   7.785  0.1548  0.5770 -0.9331
17052SOL    HW251335   0.830   1.643   7.649 -2.0327 -0.5557 -0.5975
17053SOL     OW51336   2.237   6.933   4.792 -0.4839  0.0731 -0.3048
17053SOL    HW151337   2.237   6.879   4.708  0.4251  1.4683 -1.2415
17053SOL    HW251338   2.215   7.028   4.771 -1.2942  0.2509  1.2035
17054SOL     OW51339   7.461   8.508   6.124  0.1342 -0.1800  0.3242
17054SOL    HW151340   7.405   8.484   6.044 -0.0545 -0.2898  0.4890
17054SOL    HW251341   7.500   8.425   6.163  0.4605 -0.0978  0.1744
17055SOL     OW51342   7.070   5.901   3.653  0.0265  0.2987 -0.1303
17055SOL    HW151343   7.003   5.829   3.672 -0.5749  0.5009 -1.3698
17055SOL    HW251344   7.033   5.990   3.681  0.0770  0.3161 -0.1191
17056SOL     OW51345   5.054   3.466   8.127  0.4504 -0.4523 -0.0646
17056SOL    HW151346   4.963   3.433   8.150  1.1443 -0.6470  2.8213
17056SOL    HW251347   5.047   3.553   8.078 -1.2891  0.0730  1.0486
17057SOL     OW51348   3.480   3.475   7.243  0.4040  0.3289  0.0815
17057SOL    HW151349   3.475   3.486   7.342  1.2890  0.9456  0.0753
17057SOL    HW251350   3.471   3.379   7.219 -3.2669  0.4404  0.4968
17058SOL     OW51351   8.058   6.834   2.133  0.0770 -0.8516  0.1978
17058SOL    HW151352   8.080   6.783   2.050  1.5534 -0.5624  0.3771
17058SOL    HW251353   7.962   6.820   2.156 -0.6307 -0.1850 -2.0661
17059SOL     OW51354   5.411   0.852   1.767 -0.4416  0.4915 -0.4187
17059SOL    HW151355   5.439   0.796   1.844  0.7264  2.1868  0.4548
17059SOL    HW251356   5.335   0.912   1.794 -0.3398  0.7675 -0.7256
17060SOL     OW51357   7.932   5.332   0.465  0.8751  0.1194  0.4771
17060SOL    HW151358   7.865   5.403   0.446 -0.9941 -2.1332 -2.1964
17060SOL    HW251359   7.904   5.281   0.546 -1.0872 -1.1464 -0.9239
17061SOL     OW51360   3.856   2.242   1.541  0.3331 -0.4011  0.4398
17061SOL    HW151361   3.791   2.275   1.608  0.6658 -2.1967  1.7181
17061SOL    HW251362   3.945   2.286   1.555 -0.1670  0.9132 -0.3326
17062SOL     OW51363   8.334   0.838   3.229 -0.0926 -0.1841 -0.1132
17062SOL    HW151364   8.281   0.759   3.257  0.7406 -1.1765 -1.2278
17062SOL    HW251365   8.376   0.881   3.309 -0.6902 -0.7637  0.5130
17063SOL     OW51366   8.504   5.011   5.280 -0.3454 -0.3315  0.2781
17063SOL    HW151367   8.508   5.007   5.380 -0.9627 -0.8374  0.2868
17063SOL    HW251368   8.589   4.973   5.242  0.4661  1.1027  0.6171
17064SOL     OW51369   6.835   1.524   4.415 -0.4271 -0.2687 -0.0430
17064SOL    HW151370   6.802   1.584   4.342 -3.1727 -0.3126  1.0209
17064SOL    HW251371   6.852   1.579   4.497 -1.0494 -0.6655  0.3603
17065SOL     OW51372   2.827   7.502   7.057  0.0034 -0.7252  0.2143
17065SOL    HW151373   2.833   7.563   7.137 -0.4803 -1.5189  0.8715
17065SOL    HW251374   2.768   7.544   6.988 -0.3287 -0.4477  0.6609
17066SOL     OW51375   1.631   3.925   1.632 -0.1237  0.1179 -0.1040
17066SOL    HW151376   1.557   3.863   1.605 -0.7265  0.8860 -0.2729
17066SOL    HW251377   1.695   3.935   1.555  1.6196 -2.5497  0.8841
17067SOL     OW51378   8.449   0.415   8.396  0.0967 -0.2431  0.1238
17067SOL    HW151379   8.469   0.482   8.324  0.6109 -0.8088 -0.2733
17067SOL    HW251380   8.350   0.401   8.401 -0.3467  2.8616  2.3679
17068SOL     OW51381   6.058   6.625   3.532  0.0032  0.6501  0.3723
17068SOL    HW151382   6.117   6.596   3.457 -0.6790 -3.3550  1.1141
17068SOL    HW251383   5.984   6.682   3.497 -0.3367 -1.1197 -2.1052
17069SOL     OW51384   4.677   6.693   2.024 -0.5374  0.2880 -0.1788
17069SOL    HW151385   4.617   6.736   2.091 -0.8344 -0.8484  0.3137
17069SOL    HW251386   4.767   6.735   2.027 -0.6965  0.5779  0.5896
17070SOL     OW51387   3.020   1.261   2.800  0.1086  0.4188 -0.1509
17070SOL    HW151388   3.056   1.335   2.856 -0.1348  1.3184 -1.1599
17070SOL    HW251389   2.988   1.297   2.713  3.0341 -1.2917 -2.0964
17071SOL     OW51390   0.081   1.793   8.366  0.5845  0.2701 -0.2223
17071SOL    HW151391   0.128   1.814   8.280  0.7862 -1.4966 -0.5796
17071SOL    HW251392   0.099   1.698   8.391  0.1744  0.6319  1.5681
17072SOL     OW51393   4.498   6.508   8.311 -0.2642 -0.9498 -0.1963
17072SOL    HW151394   4.548   6.442   8.254  2.7418  1.0054 -0.0529
17072SOL    HW251395   4.562   6.552   8.374 -2.5831  0.5168  1.2848
17073SOL     OW51396   7.104   6.114   8.117  0.0000  0.7780  0.3710
17073SOL    HW151397   7.076   6.023   8.085  0.7326  0.7565 -0.2409
17073SOL    HW251398   7.045   6.142   8.192 -0.0194 -0.3600  0.8082
17074SOL     OW51399   2.917   5.124   1.663  0.4927 -0.2342  0.4663
17074SOL    HW151400   2.873   5.189   1.725  1.3899 -0.3353  1.2369
17074SOL    HW251401   2.991   5.077   1.711  0.0433 -1.6428 -0.1551
17075SOL     OW51402   0.032   5.730   7.879 -0.2452 -0.0035 -0.2241
17075SOL    HW151403   0.093   5.751   7.802 -1.1760  1.0040 -0.7259
17075SOL    HW251404   0.003   5.816   7.922 -0.0814 -0.5464  0.9823
17076SOL     OW51405   3.120   8.512   0.055  0.6953 -0.4745 -0.4173
17076SOL    HW151406   3.187   8.570   0.009  0.2859 -0.8963 -1.6015
17076SOL    HW251407   3.149   8.416   0.047  0.6289 -0.5500  0.2399
17077SOL     OW51408   8.537   8.088   8.667 -0.1501 -0.1059 -0.5658
17077SOL    HW151409   8.552   8.031   8.586  2.1740 -0.0780 -0.2075
17077SOL    HW251410   8.578   8.178   8.653  0.9806 -0.3551  0.9082
17078SOL     OW51411   8.139   5.367   4.815  0.6323  0.4050 -0.1682
17078SOL    HW151412   8.161   5.462   4.790  0.8175  0.6979  1.0531
17078SOL    HW251413   8.217   5.308   4.793  0.6325  0.5815 -0.6563
17079SOL     OW51414   8.007   1.083   2.219  0.0389  0.1382  0.4760
17079SOL    HW151415   7.979   1.179   2.223  1.7839  0.7282 -0.3818
17079SOL    HW251416   8.078   1.067   2.288 -1.1049 -0.8850  1.4652
17080SOL     OW51417   7.547   4.659   6.656 -0.3213 -0.1498 -0.0467
17080SOL    HW151418   7.601   4.575   6.651 -1.0007 -0.5994  0.0615
17080SOL    HW251419   7.455   4.641   6.622 -0.3270  0.6754 -0.4732
17081SOL     OW51420   3.601   4.296   7.080  0.2471  0.3482  0.0475
17081SOL    HW151421   3.627   4.361   7.008 -0.9322  1.3796  0.5175
17081SOL    HW251422   3.658   4.312   7.160 -0.1918  0.9897  0.2433
17082SOL     OW51423   1.502   2.078   1.322 -0.6312  0.3519 -0.4799
17082SOL    HW151424   1.464   2.073   1.415 -0.1014 -0.2930 -0.2840
17082SOL    HW251425   1.486   1.991   1.276  0.6312  0.0413 -0.3705
17083SOL     OW51426   2.446   6.411   5.161 -0.2868 -0.0773  0.5162
17083SOL    HW151427   2.421   6.494   5.111 -1.0252  0.5110  1.8067
17083SOL    HW251428   2.543   6.392   5.147 -0.7882 -0.9790 -2.5686
17084SOL     OW51429   2.154   6.748   8.350  0.2287  0.2878 -0.0320
17084SOL    HW151430   2.120   6.655   8.364  1.8164 -0.2691  0.3287
17084SOL    HW251431   2.154   6.769   8.252 -3.0233  1.0911  0.0528
17085SOL     OW51432   7.655   5.068   4.248 -0.0631  0.1517  0.2115
17085SOL    HW151433   7.559   5.057   4.274 -0.5449  1.2913 -0.9810
17085SOL    HW251434   7.691   5.152   4.289 -0.9808  2.2638 -2.9361
17086SOL     OW51435   8.792   6.143   3.747  0.0417 -0.3379  0.4043
17086SOL    HW151436   8.823   6.060   3.793 -2.1123 -0.6189  1.4745
17086SOL    HW251437   8.725   6.190   3.805  0.3005  1.5069 -0.7133
17087SOL     OW51438   7.454   4.523   8.067 -0.5345 -0.3309  0.2356
17087SOL    HW151439   7.389   4.459   8.109  0.7506 -0.8235  1.5264
17087SOL    HW251440   7.504   4.477   7.993 -0.1996 -0.5699  0.6103
17088SOL     OW51441   0.024   5.465   7.910  0.1983 -0.6320 -0.3293
17088SOL    HW151442   0.029   5.557   7.871 -2.0197 -0.7429 -1.0167
17088SOL    HW251443  -0.050   5.460   7.977  1.2401 -1.5646  0.8072
17089SOL     OW51444   2.697   2.038   8.305  0.0000  0.0717 -0.0933
17089SOL    HW151445   2.793   2.014   8.291 -0.0381 -2.2651  2.7178
17089SOL    HW251446   2.643   2.010   8.226  1.5448  1.3518 -1.6817
17090SOL     OW51447   3.432   1.941   6.595  0.2200  0.1798  0.5986
17090SOL    HW151448   3.453   2.004   6.671  0.9868 -1.4257  1.7856
17090SOL    HW251449   3.423   1.848   6.631  0.9832 -0.7015 -1.3362
17091SOL     OW51450   4.097   5.188   0.860  0.1525  0.0957  0.1536
17091SOL    HW151451   4.068   5.283   0.856  0.9424  0.3236 -0.3493
17091SOL    HW251452   4.165   5.176   0.931 -0.7413 -0.3328  0.9680
17092SOL     OW51453   4.800   3.613   3.134  0.0347  0.8208 -0.2164
17092SOL    HW151454   4.888   3.630   3.178  0.3799  0.5390 -0.7766
17092SOL    HW251455   4.814   3.557   3.052 -0.9215 -1.4847  1.0683
17093SOL     OW51456   7.612   3.979   5.258  0.1795 -0.1826 -0.0506
17093SOL    HW151457   7.629   3.997   5.355  0.4888 -0.0827 -0.1197
17093SOL    HW251458   7.583   3.885   5.246  1.7505 -0.7003 -0.0296
17094SOL     OW51459   7.383   3.230   7.866  0.0163  0.1828  0.1224
17094SOL    HW151460   7.434   3.153   7.904 -0.1527 -0.3625 -0.7080
17094SOL    HW251461   7.386   3.224   7.766  0.6939  1.7216  0.0302
17095SOL     OW51462   4.922   4.923   6.168 -1.2973 -0.3422  0.6248
17095SOL    HW151463   5.001   4.984   6.175 -2.5472  1.6443 -1.2950
17095SOL    HW251464   4.953   4.830   6.151  0.6609  0.6664 -1.9378
17096SOL     OW51465   0.088   1.423   6.877  0.1126  0.3375  0.4438
17096SOL    HW151466   0.030   1.407   6.957  0.6517 -0.3685  0.7024
17096SOL    HW251467   0.180   1.387   6.895  0.2795  0.3122 -0.4335
17097SOL     OW51468   6.429   7.380   6.923 -0.3355 -0.0375 -0.3956
17097SOL    HW151469   6.455   7.289   6.890 -1.8186 -0.7829  0.4092
17097SOL    HW251470   6.510   7.439   6.925  0.5147 -1.0960 -1.6417
17098SOL     OW51471   3.521   0.674   0.088  0.5999  0.1487 -0.1071
17098SOL    HW151472   3.579   0.592   0.096  1.5801  0.7575 -0.7075
17098SOL    HW251473   3.477   0.692   0.175  1.3752 -0.3117  0.3974
17099SOL     OW51474   7.014   8.041   4.291  0.3524  0.0542 -0.5065
17099SOL    HW151475   6.918   8.016   4.276  0.1726  0.3639  0.0977
17099SOL    HW251476   7.053   7.982   4.362  0.4072  0.3918 -0.2565
17100SOL     OW51477   4.607   1.961   8.607  0.0967 -0.2334  0.0400
17100SOL    HW151478   4.662   1.940   8.688 -1.4484  0.2367  1.2806
17100SOL    HW251479   4.529   1.899   8.604 -1.1332  1.2491  0.2576
17101SOL     OW51480   5.451   2.871   1.656  0.2308 -0.0053  0.7535
17101SOL    HW151481   5.517   2.820   1.600 -0.2647  0.7830 -0.5776
17101SOL    HW251482   5.471   2.968   1.652 -0.2665  0.1324  1.3690
17102SOL     OW51483   2.020   2.364   0.892  0.1370 -0.6664  0.0759
17102SOL    HW151484   2.040   2.455   0.856  0.1356 -0.8647 -0.4330
17102SOL    HW251485   1.937   2.328   0.847  0.7799 -1.3854 -0.5736
17103SOL     OW51486   3.669   0.423   2.373  0.0138 -0.4009 -0.2241
17103SOL    HW151487   3.701   0.371   2.295  1.4744  0.3540 -0.1627
17103SOL    HW251488   3.586   0.381   2.410 -0.9715 -0.5313 -2.4141
17104SOL     OW51489   1.503   6.018   6.289  0.6174  0.2522 -0.2847
17104SOL    HW151490   1.567   6.057   6.355  1.1822 -1.1207  0.0225
17104SOL    HW251491   1.537   5.929   6.258  0.6109  1.0235 -2.7843
17105SOL     OW51492   6.850   6.088   2.984 -0.0294 -0.2563 -0.3799
17105SOL    HW151493   6.771   6.032   3.008 -1.0046  1.6495  1.2173
17105SOL    HW251494   6.827   6.147   2.907 -0.4376  0.7077  0.4445
17106SOL     OW51495   0.459   3.616   2.723 -0.3316  0.7472  0.0818
17106SOL    HW151496   0.541   3.674   2.716 -1.3185  2.0742 -1.1756
17106SOL    HW251497   0.385   3.668   2.765 -1.6167  0.9019 -2.2033
17107SOL     OW51498   2.665   4.007   0.902  0.4085  0.1471 -0.2171
17107SOL    HW151499   2.664   4.039   0.996  0.9339  2.1874 -0.8531
17107SOL    HW251500   2.586   3.948   0.885 -0.8256  1.4180  0.9445
17108SOL     OW51501   1.410   4.431   2.949 -0.1426 -0.0510 -0.1746
17108SOL    HW151502   1.504   4.433   2.914  0.1893 -1.2930  0.5500
17108SOL    HW251503   1.349   4.476   2.884  1.1928  2.5332  0.2165
17109SOL     OW51504   3.857   7.975   2.029  0.3754  0.2829  0.1220
17109SOL    HW151505   3.947   8.017   2.036  0.3269  0.2430  1.1308
17109SOL    HW251506   3.787   8.047   2.023  0.4918  0.3115 -1.0402
17110SOL     OW51507   2.269   3.109   3.850 -0.0783  0.3565 -0.2475
17110SOL    HW151508   2.195   3.101   3.917  0.4708 -1.0999  0.2471
17110SOL    HW251509   2.268   3.200   3.809 -1.6324  0.6252  0.3255
17111SOL     OW51510   8.072   5.125   2.694 -0.2007 -0.2983 -0.2041
17111SOL    HW151511   8.084   5.129   2.793 -0.7043 -2.8639  0.0229
17111SOL    HW251512   7.976   5.105   2.673  0.1680 -1.1697 -1.1366
17112SOL     OW51513   2.765   6.551   2.532  0.4884  0.1109 -0.1706
17112SOL    HW151514   2.753   6.634   2.477  1.1234 -0.2857 -0.9186
17112SOL    HW251515   2.792   6.475   2.473  1.1513 -0.3353  0.6818
17113SOL     OW51516   8.079   2.422   4.075 -0.4288 -0.3612 -0.0849
17113SOL    HW151517   8.075   2.419   3.975 -2.4469 -0.8590 -0.0376
17113SOL    HW251518   8.073   2.328   4.110  0.1016 -0.1716  0.5246
17114SOL     OW51519   7.820   7.106   0.911  0.0772 -0.1619 -0.5022
17114SOL    HW151520   7.840   7.154   0.996  0.8525  0.6910 -1.1501
17114SOL    HW251521   7.890   7.036   0.895  0.4496  0.2911 -0.8844
17115SOL     OW51522   5.373   6.996   7.154 -0.2443 -0.0224  0.4918
17115SOL    HW151523   5.302   7.059   7.124 -0.8691 -1.7511 -1.9121
17115SOL    HW251524   5.458   7.016   7.106 -0.3313 -0.6911  0.0376
17116SOL     OW51525   3.396   3.324   8.033 -0.3759 -0.4121 -0.1120
17116SOL    HW151526   3.367   3.234   8.003 -0.0580 -0.6434  0.2566
17116SOL    HW251527   3.316   3.383   8.046 -0.5003 -0.0526 -2.1213
17117SOL     OW51528   5.470   8.230   0.886 -0.6147 -0.0651 -0.1022
17117SOL    HW151529   5.553   8.179   0.907 -0.7791 -0.2079  0.2013
17117SOL    HW251530   5.390   8.178   0.915 -0.7506  0.7670  1.0942
17118SOL     OW51531   4.189   5.158   5.817  0.3386 -0.5219  0.3906
17118SOL    HW151532   4.143   5.230   5.869  1.4143 -0.5083  1.3847
17118SOL    HW251533   4.124   5.085   5.795 -0.5282  0.2728  0.2600
17119SOL     OW51534   6.264   3.556   5.272  0.3737 -0.8288  0.0674
17119SOL    HW151535   6.256   3.640   5.325  1.3095  0.2432 -1.4069
17119SOL    HW251536   6.262   3.578   5.174 -1.2229 -2.7193 -0.3977
17120SOL     OW51537   1.846   3.418   6.097  0.2772  0.3043  0.3612
17120SOL    HW151538   1.784   3.465   6.161  0.2838  0.2108  0.4359
17120SOL    HW251539   1.937   3.457   6.105  0.2490  0.3817  0.3143
17121SOL     OW51540   2.028   4.117   5.424  0.1597  0.6727  0.5700
17121SOL    HW151541   2.036   4.020   5.398 -1.5309  0.7854 -0.4988
17121SOL    HW251542   1.945   4.131   5.476 -0.3762  1.7841 -0.5325
17122SOL     OW51543   4.275   1.987   4.625 -0.0758  0.2089  0.0327
17122SOL    HW151544   4.353   2.033   4.583 -1.0237  0.9690 -0.9539
17122SOL    HW251545   4.255   1.902   4.575 -0.1562  0.2555 -0.0163
17123SOL     OW51546   2.699   1.782   0.704  0.0027 -0.1426  0.3557
17123SOL    HW151547   2.779   1.789   0.645 -0.2449  2.2195  0.1913
17123SOL    HW251548   2.682   1.870   0.748 -2.5480 -0.5166  0.3056
17124SOL     OW51549   2.352   7.396   3.523  0.1291 -0.1599  0.1015
17124SOL    HW151550   2.404   7.315   3.494  1.5719  0.4971  0.7335
17124SOL    HW251551   2.291   7.425   3.450  1.1103 -0.6113 -0.9235
17125SOL     OW51552   5.135   1.396   4.002 -0.2707  0.0030  0.4837
17125SOL    HW151553   5.223   1.435   4.028 -0.3480 -0.9431  2.3683
17125SOL    HW251554   5.147   1.302   3.972 -0.7797 -0.7587  2.5156
17126SOL     OW51555   8.188   5.356   5.475 -0.2544 -0.8767  0.1153
17126SOL    HW151556   8.264   5.324   5.418  1.5644  0.0431  1.8532
17126SOL    HW251557   8.152   5.280   5.528  2.2762 -0.7247  2.2798
17127SOL     OW51558   2.879   1.306   3.363 -0.0672 -0.4242 -0.2879
17127SOL    HW151559   2.913   1.272   3.276 -0.9082 -0.5057 -0.5933
17127SOL    HW251560   2.779   1.306   3.362 -0.1000 -1.2008  0.9743
17128SOL     OW51561   2.692   8.774   5.655 -0.2871 -0.1718  0.5636
17128SOL    HW151562   2.637   8.858   5.648  0.4681  0.2676 -0.4214
17128SOL    HW251563   2.770   8.781   5.593 -0.7371 -2.0194 -0.2618
17129SOL     OW51564   6.964   7.934   8.311 -0.4762 -0.3272 -0.4260
17129SOL    HW151565   7.005   7.964   8.225 -2.4071 -0.4476 -1.4450
17129SOL    HW251566   6.870   7.967   8.316 -1.4110 -2.8703  0.2195
17130SOL     OW51567   3.207   8.408   3.159 -0.6068  0.3813  0.2554
17130SOL    HW151568   3.240   8.314   3.162  1.2322  0.8430 -2.3461
17130SOL    HW251569   3.267   8.467   3.213 -0.7334  0.3416  0.4420
17131SOL     OW51570   7.750   2.574   7.620 -0.1653  0.2711 -0.0789
17131SOL    HW151571   7.804   2.500   7.658 -1.9414 -0.8361  0.4106
17131SOL    HW251572   7.803   2.621   7.549  0.5748 -2.2788 -1.3313
17132SOL     OW51573   8.473   2.986   2.183  0.3499 -0.1946  0.0858
17132SOL    HW151574   8.450   3.064   2.241  0.2888 -0.0179 -0.1771
17132SOL    HW251575   8.492   2.907   2.241  0.3898  0.0077  0.3520
17133SOL     OW51576   3.187   2.827   7.611  0.2106 -0.5368  0.6733
17133SOL    HW151577   3.281   2.856   7.592  0.3092  1.3312  3.3858
17133SOL    HW251578   3.174   2.820   7.710 -2.8731  0.7058  0.4662
17134SOL     OW51579   0.559   8.468   5.464 -0.1538 -0.7968  0.5941
17134SOL    HW151580   0.574   8.466   5.563  1.7661  0.7863  0.4004
17134SOL    HW251581   0.495   8.396   5.439 -1.4318 -0.6433  3.0929
17135SOL     OW51582   5.930   6.623   0.123 -0.0385 -0.0876 -0.3785
17135SOL    HW151583   5.832   6.642   0.117 -0.2193 -0.4150  1.2212
17135SOL    HW251584   5.978   6.673   0.050 -1.2765  0.8614 -0.5733
17136SOL     OW51585   7.444   4.699   4.790 -0.4151 -0.1121 -0.2239
17136SOL    HW151586   7.488   4.726   4.876 -0.3429 -1.7749  0.3087
17136SOL    HW251587   7.351   4.668   4.809 -0.3537 -0.6209 -0.7212
17137SOL     OW51588   6.824   6.800   7.424 -0.2242  0.0906 -0.2633
17137SOL    HW151589   6.850   6.777   7.518 -0.2880 -2.3348 -0.7816
17137SOL    HW251590   6.731   6.836   7.423 -1.1897 -2.2448  0.3840
17138SOL     OW51591   1.832   7.630   8.158 -0.1021 -0.1099  0.0321
17138SOL    HW151592   1.837   7.578   8.073  1.6239  0.2305 -0.1202
17138SOL    HW251593   1.822   7.568   8.235  3.0319 -0.8609 -0.0495
17139SOL     OW51594   7.010   2.931   2.998  0.2662 -0.1000  0.1012
17139SOL    HW151595   6.924   2.925   3.048  0.2402  0.3104  0.1125
17139SOL    HW251596   7.069   2.855   3.023 -0.2013 -0.5371 -0.1132
17140SOL     OW51597   4.309   6.335   7.795 -0.6967 -0.2727 -0.4991
17140SOL    HW151598   4.288   6.396   7.718 -1.3285 -1.0422 -0.9615
17140SOL    HW251599   4.320   6.388   7.879 -0.5570  0.5281 -1.0220
17141SOL     OW51600   7.990   6.358   2.971 -0.9169  0.0660 -0.4249
17141SOL    HW151601   7.914   6.364   2.906 -0.6723 -1.9585 -0.9666
17141SOL    HW251602   8.053   6.434   2.955 -1.6484  0.4707 -1.5268
17142SOL     OW51603   0.158   0.706   8.616 -0.1225 -0.2999  0.4804
17142SOL    HW151604   0.156   0.794   8.663 -0.3096  0.7172 -1.3074
17142SOL    HW251605   0.071   0.659   8.629 -1.0762  1.0426 -0.7271
17143SOL     OW51606   6.409   1.036   7.523  0.2884 -0.3076  0.9726
17143SOL    HW151607   6.485   0.980   7.491  0.6151  1.1000 -0.9707
17143SOL    HW251608   6.394   1.022   7.621  2.4333 -1.3059  1.1953
17144SOL     OW51609   6.775   5.670   0.453  0.3693 -0.4088  0.2265
17144SOL    HW151610   6.761   5.749   0.512  1.8518  0.8260 -0.9836
17144SOL    HW251611   6.699   5.664   0.387  0.2889  0.0674  0.2694
17145SOL     OW51612   6.090   0.383   8.304 -0.3190  0.3533  0.2659
17145SOL    HW151613   6.135   0.457   8.353  1.0409 -0.1660 -0.1678
17145SOL    HW251614   6.157   0.314   8.278 -1.5541 -1.0443  0.6461
17146SOL     OW51615   7.117   6.163   2.129  0.1686  0.2456  0.1009
17146SOL    HW151616   7.105   6.234   2.060 -0.9198 -0.0344 -0.0026
17146SOL    HW251617   7.092   6.199   2.219  2.3761  0.8721  0.5194
17147SOL     OW51618   7.860   2.819   5.376 -0.0283 -1.4100 -0.0525
17147SOL    HW151619   7.783   2.879   5.356 -1.1327 -2.7192  0.1240
17147SOL    HW251620   7.943   2.857   5.336 -0.0962  1.6704  2.3100
17148SOL     OW51621   5.075   0.826   7.876  0.0509  0.1243 -0.4329
17148SOL    HW151622   5.109   0.886   7.803 -0.9876 -0.2865 -1.2849
17148SOL    HW251623   5.005   0.875   7.928  0.0892  0.0722 -0.3326
17149SOL     OW51624   8.652   0.843   6.677 -0.0425  0.4607  0.1279
17149SOL    HW151625   8.644   0.850   6.777  0.9888  1.1271  0.1757
17149SOL    HW251626   8.653   0.746   6.651  1.6212  0.2026  0.9667
17150SOL     OW51627   5.144   1.454   8.573  0.7110  0.0321  0.5730
17150SOL    HW151628   5.164   1.484   8.479  0.1618 -3.3784 -0.7912
17150SOL    HW251629   5.083   1.519   8.617 -0.2300  0.9899 -1.9846
17151SOL     OW51630   0.096   4.063   0.405 -0.1270  0.2339 -0.4095
17151SOL    HW151631   0.117   4.157   0.430 -0.9061  0.0742  0.9021
17151SOL    HW251632   0.164   4.001   0.445  0.3943  0.2162 -1.2833
17152SOL     OW51633   2.716   3.440   6.236 -0.8955  0.4389 -0.4529
17152SOL    HW151634   2.683   3.346   6.242 -1.2449  0.5333 -0.8434
17152SOL    HW251635   2.797   3.442   6.177  0.2685  0.0982  1.0715
17153SOL     OW51636   6.340   5.902   8.404  0.1901  0.4219  0.2085
17153SOL    HW151637   6.333   5.880   8.307 -0.9635  1.7876 -0.0569
17153SOL    HW251638   6.264   5.962   8.431  1.2208  1.1819  1.6279
17154SOL     OW51639   4.410   6.689   2.171 -0.0580  0.3646 -0.2370
17154SOL    HW151640   4.330   6.630   2.180 -0.0849  0.0538 -2.1351
17154SOL    HW251641   4.398   6.750   2.093  1.2696  0.7889 -0.1378
17155SOL     OW51642   5.834   5.980   0.199  0.8627 -0.2699  0.1157
17155SOL    HW151643   5.780   5.953   0.279 -0.9786 -1.5363 -1.4400
17155SOL    HW251644   5.775   6.028   0.134  1.9160 -0.5521 -1.0951
17156SOL     OW51645   3.527   4.624   3.170  0.1548 -0.1940 -0.5374
17156SOL    HW151646   3.608   4.572   3.144  0.0378 -0.1688 -0.9595
17156SOL    HW251647   3.512   4.615   3.268  0.8763  0.0875 -0.3870
17157SOL     OW51648   6.241   0.716   8.763  0.0674 -0.4823 -0.6610
17157SOL    HW151649   6.335   0.710   8.798  0.1533 -0.3346 -0.8582
17157SOL    HW251650   6.181   0.657   8.816 -0.0369  0.6379  0.5066
17158SOL     OW51651   5.276   5.235   3.272 -0.6003 -0.5697 -0.2269
17158SOL    HW151652   5.296   5.175   3.195 -1.3203  0.8506 -1.5981
17158SOL    HW251653   5.332   5.318   3.266  0.3274 -1.0222  1.5780
17159SOL     OW51654   3.840   3.171   6.166 -0.6572  0.2317  0.2380
17159SOL    HW151655   3.778   3.247   6.186 -2.1146 -1.2269  1.5706
17159SOL    HW251656   3.830   3.143   6.070  0.2175  1.9347 -0.3899
17160SOL     OW51657   2.186   7.959   7.229 -0.2688  0.1105 -0.5753
17160SOL    HW151658   2.108   7.911   7.270  0.0678 -0.2358 -0.3386
17160SOL    HW251659   2.246   7.893   7.184  1.0436  0.0768  1.1121
17161SOL     OW51660   2.378   3.029   7.377  0.2355 -0.0558 -0.1066
17161SOL    HW151661   2.334   3.095   7.437  0.7544  0.4914 -0.3164
17161SOL    HW251662   2.312   2.958   7.351 -0.4107  0.5408 -0.1175
17162SOL     OW51663   6.391   4.914   7.183  0.6512 -0.3114  0.1943
17162SOL    HW151664   6.423   4.982   7.117  0.0127 -0.1987 -0.0053
17162SOL    HW251665   6.390   4.824   7.141  3.3785 -0.8181  1.0324
17163SOL     OW51666   1.531   6.043   8.272 -0.5904  0.2374  0.5720
17163SOL    HW151667   1.563   6.021   8.181 -1.8182  0.9305 -0.0562
17163SOL    HW251668   1.598   6.013   8.340 -0.4997 -1.9670 -0.4217
17164SOL     OW51669   5.066   5.487   3.842  0.0739 -0.3446  0.2955
17164SOL    HW151670   5.095   5.567   3.895  1.7872 -0.9017  0.2388
17164SOL    HW251671   5.012   5.518   3.764  0.4855  0.7442  0.4140
17165SOL     OW51672   5.235   4.316   8.630  0.3983 -0.3502 -0.4438
17165SOL    HW151673   5.156   4.309   8.692  0.8281 -0.6245  0.0819
17165SOL    HW251674   5.254   4.226   8.590  0.6515 -0.3609 -0.3043
17166SOL     OW51675   6.650   1.850   6.111 -0.2322 -0.6847  0.1529
17166SOL    HW151676   6.629   1.839   6.014 -1.0068 -0.0353  0.2356
17166SOL    HW251677   6.618   1.770   6.162  0.6187 -1.2518 -0.1810
17167SOL     OW51678   4.699   7.253   2.485 -0.0151 -0.3027  0.1919
17167SOL    HW151679   4.605   7.283   2.499  0.0595  0.2832 -0.5026
17167SOL    HW251680   4.700   7.156   2.462 -0.5362 -0.0953 -0.7454
17168SOL     OW51681   4.865   3.614   1.084  0.0673  0.0600 -0.3033
17168SOL    HW151682   4.775   3.643   1.116 -0.2262 -0.1764 -0.8950
17168SOL    HW251683   4.873   3.631   0.986  1.4732  2.0675  0.1163
17169SOL     OW51684   4.053   2.623   6.827  0.5899 -0.3271  0.7272
17169SOL    HW151685   4.010   2.535   6.844  0.6304 -0.2364  1.3125
17169SOL    HW251686   4.097   2.622   6.738 -0.8503 -0.3423 -0.0134
17170SOL     OW51687   2.459   8.217   3.303  0.4018 -0.4004  0.0412
17170SOL    HW151688   2.473   8.284   3.230 -1.4744  0.6266  0.5499
17170SOL    HW251689   2.484   8.258   3.390 -0.0033 -0.6429  0.2729
17171SOL     OW51690   4.945   1.016   1.249 -0.3763  0.4471  0.3081
17171SOL    HW151691   4.916   1.031   1.344 -0.1659 -0.1222  0.4630
17171SOL    HW251692   4.990   1.099   1.215  1.2868  0.0189  1.3516
17172SOL     OW51693   8.846   8.369   6.022  0.0362  0.3435  0.0996
17172SOL    HW151694   8.795   8.454   6.032  1.6400  1.1692  1.9056
17172SOL    HW251695   8.866   8.331   6.112  0.0149 -1.5584 -0.6596
17173SOL     OW51696   4.771   8.368   4.654  0.4011 -0.3147 -0.0287
17173SOL    HW151697   4.778   8.389   4.557 -0.4053  0.6239  0.0991
17173SOL    HW251698   4.827   8.431   4.707  1.6357 -1.4534  0.0698
17174SOL     OW51699   1.119   3.651   3.135  0.1576  0.0411  0.1625
17174SOL    HW151700   1.106   3.623   3.040  1.0424 -1.9940  0.5867
17174SOL    HW251701   1.055   3.600   3.193  0.1403  0.7099  0.7405
17175SOL     OW51702   0.159   1.663   1.352  0.1861  0.0192  0.8122
17175SOL    HW151703   0.218   1.583   1.354 -0.7888 -0.6913  1.9804
17175SOL    HW251704   0.109   1.671   1.438 -0.1305  1.5918  0.5206
17176SOL     OW51705   3.109   2.490   7.428 -0.3115  0.4217  0.2050
17176SOL    HW151706   3.152   2.498   7.519  0.6262  0.9597 -0.2711
17176SOL    HW251707   3.111   2.578   7.382  1.5254 -0.3375 -1.3285
17177SOL     OW51708   3.437   7.854   1.292 -0.0534 -0.5156 -0.1803
17177SOL    HW151709   3.378   7.919   1.339 -0.8585  0.3242 -2.2497
17177SOL    HW251710   3.526   7.894   1.277  0.3131 -0.9057  0.8506
17178SOL     OW51711   0.337   3.919   8.285  0.1164  0.0770  0.7997
17178SOL    HW151712   0.237   3.916   8.288  0.0600  1.5542  1.4962
17178SOL    HW251713   0.370   3.854   8.217 -1.4310  0.7723 -0.6993
17179SOL     OW51714   6.889   3.953   2.205  0.1460 -0.2584 -0.5982
17179SOL    HW151715   6.908   3.922   2.298 -0.8779 -0.6230 -0.5054
17179SOL    HW251716   6.976   3.966   2.156  0.6498 -1.3647 -0.0204
17180SOL     OW51717   0.918   6.984   0.362 -0.1647  0.2193 -0.3029
17180SOL    HW151718   0.950   6.897   0.324 -0.8264 -1.0128  1.8469
17180SOL    HW251719   0.834   7.012   0.316  0.7728  0.4930 -1.9508
17181SOL     OW51720   6.231   7.273   4.593 -0.0891 -0.1436  0.2168
17181SOL    HW151721   6.299   7.344   4.609 -0.3614  0.1046  0.2779
17181SOL    HW251722   6.147   7.313   4.557 -0.5099 -0.3250  0.9496
17182SOL     OW51723   2.446   0.828   2.932  0.0726  0.1189 -0.5505
17182SOL    HW151724   2.388   0.847   3.011 -2.3549  0.6009 -2.3552
17182SOL    HW251725   2.502   0.748   2.952  1.0123  1.3279  2.3390
17183SOL     OW51726   6.762   4.388   2.054 -0.9765  0.2841 -0.1017
17183SOL    HW151727   6.798   4.444   2.129 -1.5749  0.4781  0.0413
17183SOL    HW251728   6.788   4.292   2.068 -2.1691  0.1052  1.0490
17184SOL     OW51729   4.587   1.045   7.041  0.3592 -0.6364  0.2423
17184SOL    HW151730   4.619   1.001   7.124  2.1544 -0.5656 -0.3759
17184SOL    HW251731   4.665   1.078   6.988 -0.7184 -0.8342 -1.5603
17185SOL     OW51732   4.099   4.631   1.726  0.1339  0.1599  0.4136
17185SOL    HW151733   4.098   4.581   1.640  1.7191 -0.2384  0.6032
17185SOL    HW251734   4.118   4.568   1.801  0.0932  0.7131  0.8961
17186SOL     OW51735   2.016   0.479   3.213 -0.3940 -0.6170  0.9684
17186SOL    HW151736   1.989   0.574   3.194  0.2208  0.2010  3.7229
17186SOL    HW251737   2.095   0.455   3.155  0.8402  1.3595  1.7012
17187SOL     OW51738   6.290   1.714   5.615 -0.3865 -0.3267 -0.2404
17187SOL    HW151739   6.231   1.731   5.537 -0.5486 -0.6661 -0.1913
17187SOL    HW251740   6.241   1.735   5.700 -0.5955 -1.0360 -0.1772
17188SOL     OW51741   6.423   1.467   3.092 -0.5518  0.6209  0.4070
17188SOL    HW151742   6.500   1.506   3.041  0.7390 -1.6313  0.4600
17188SOL    HW251743   6.431   1.490   3.189  0.1852  0.2636  0.4404
17189SOL     OW51744   0.584   2.450   4.186  0.2871 -0.1860  0.3376
17189SOL    HW151745   0.632   2.368   4.217  2.2942  0.7355 -0.1963
17189SOL    HW251746   0.487   2.428   4.172  0.8891 -2.6427 -0.4710
17190SOL     OW51747   0.398   0.522   0.877 -0.1177 -0.4128 -0.3042
17190SOL    HW151748   0.349   0.447   0.922 -0.6153 -0.2080 -0.5035
17190SOL    HW251749   0.496   0.507   0.887 -0.1836 -1.6843 -1.2865
17191SOL     OW51750   7.946   5.488   0.121 -0.4097  0.5919  0.0588
17191SOL    HW151751   7.934   5.572   0.174  0.5184  0.1632  0.9972
17191SOL    HW251752   8.042   5.459   0.125 -0.9931 -1.3998  1.1812
17192SOL     OW51753   1.028   7.343   6.232 -0.1493 -0.7012  0.0220
17192SOL    HW151754   1.109   7.304   6.276 -0.8656 -0.7037  1.4028
17192SOL    HW251755   1.050   7.367   6.138  1.2735 -1.2778  0.1718
17193SOL     OW51756   5.056   7.119   7.495 -0.5162  0.2093 -0.2123
17193SOL    HW151757   4.987   7.077   7.554  0.2643 -0.2031  0.4374
17193SOL    HW251758   5.043   7.089   7.401 -1.3557  0.3233 -0.1392
17194SOL     OW51759   1.506   0.524   3.045  0.4236 -0.1989 -0.0380
17194SOL    HW151760   1.494   0.623   3.035 -0.6296 -0.1195  1.5767
17194SOL    HW251761   1.570   0.506   3.119  1.0161 -0.7363 -0.6761
17195SOL     OW51762   3.144   8.307   7.733 -0.0825 -0.5596  0.3477
17195SOL    HW151763   3.085   8.227   7.745  0.8241 -1.2177  0.5727
17195SOL    HW251764   3.239   8.277   7.728  0.3785  0.6010  1.6395
17196SOL     OW51765   4.236   4.543   8.058 -0.2174 -0.1000  0.5613
17196SOL    HW151766   4.291   4.626   8.051  0.2163 -0.2923  1.5417
17196SOL    HW251767   4.263   4.492   8.140 -0.5120 -1.1880 -0.0066
17197SOL     OW51768   8.535   1.207   7.851  0.2058  0.0648 -0.5179
17197SOL    HW151769   8.492   1.151   7.922 -1.8220  1.1550 -0.8327
17197SOL    HW251770   8.632   1.219   7.874 -0.2876  0.0349  1.8611
17198SOL     OW51771   7.508   6.650   8.640 -0.2911  0.3716 -0.5158
17198SOL    HW151772   7.530   6.578   8.574 -2.2413  0.1705 -1.0223
17198SOL    HW251773   7.435   6.707   8.602 -0.0045  1.5347  0.6321
17199SOL     OW51774   2.262   6.077   2.509  0.6521  0.4692 -0.0379
17199SOL    HW151775   2.279   5.982   2.483 -1.3366  0.1014 -0.1470
17199SOL    HW251776   2.343   6.114   2.556  1.7274 -1.0167 -0.6413
17200SOL     OW51777   2.327   4.151   6.921  0.4429 -0.2656  0.3466
17200SOL    HW151778   2.343   4.243   6.957  0.1792 -0.2939  0.5425
17200SOL    HW251779   2.257   4.105   6.977  0.2115 -0.4009 -0.0512
17201SOL     OW51780   6.243   4.952   5.537 -0.0183  0.0722 -0.8456
17201SOL    HW151781   6.236   4.894   5.456  0.2851 -0.7952 -0.2661
17201SOL    HW251782   6.173   5.023   5.534 -1.4339 -1.2647 -0.8181
17202SOL     OW51783   3.127   3.177   1.297 -0.1151  0.1384 -0.0381
17202SOL    HW151784   3.174   3.265   1.286  0.3096 -0.2057 -1.0687
17202SOL    HW251785   3.061   3.165   1.223  0.7890 -1.0009 -0.6955
17203SOL     OW51786   0.975   2.418   5.251 -0.2683  0.2256  0.2767
17203SOL    HW151787   0.911   2.342   5.267  1.0276 -0.2353  4.7604
17203SOL    HW251788   0.926   2.505   5.258 -0.9325 -0.1458  0.3552
17204SOL     OW51789   6.989   5.740   5.518 -0.0775 -0.0062  0.1764
17204SOL    HW151790   7.067   5.747   5.580 -0.2120  2.1787  0.1668
17204SOL    HW251791   7.022   5.729   5.424  0.1789 -0.3113  0.3003
17205SOL     OW51792   5.206   8.684   2.701 -0.3827  1.3006 -0.3708
17205SOL    HW151793   5.131   8.636   2.746  0.1431  1.9399  1.2600
17205SOL    HW251794   5.258   8.620   2.645  1.1690 -0.4710  2.8527
17206SOL     OW51795   5.122   5.906   2.939  0.1231 -0.1769  0.1957
17206SOL    HW151796   5.078   5.888   2.851  1.2247 -0.8829 -0.2438
17206SOL    HW251797   5.087   5.992   2.977  0.9486  1.1685 -1.8493
17207SOL     OW51798   3.265   0.653   1.068  0.3625 -0.0737  0.5878
17207SOL    HW151799   3.291   0.571   1.017 -0.1609 -0.1237  0.3980
17207SOL    HW251800   3.341   0.719   1.066 -0.3464  0.7780 -2.0134
17208SOL     OW51801   5.099   4.292   0.245 -0.1149  0.5783 -0.1662
17208SOL    HW151802   5.000   4.292   0.258 -0.3375 -2.6653 -0.8216
17208SOL    HW251803   5.125   4.214   0.187  2.8682  0.9321  0.5162
17209SOL     OW51804   6.672   5.927   3.122 -0.3228  0.1155  0.0576
17209SOL    HW151805   6.580   5.953   3.094 -0.3229 -0.0508 -0.0991
17209SOL    HW251806   6.703   5.987   3.196 -0.4052  0.4211 -0.1567
17210SOL     OW51807   8.568   6.122   4.920  0.1194 -0.0556  0.6865
17210SOL    HW151808   8.559   6.203   4.863 -1.3824  0.3932  1.5003
17210SOL    HW251809   8.568   6.040   4.863 -2.0472  0.3400  0.0425
17211SOL     OW51810   1.100   0.557   4.584 -0.6508 -0.2169 -0.0146
17211SOL    HW151811   1.090   0.469   4.631  1.7456  0.5525  2.1562
17211SOL    HW251812   1.195   0.572   4.560 -1.4628  0.4593 -3.3316
17212SOL     OW51813   5.563   5.382   2.567 -0.8315 -0.9055 -0.4011
17212SOL    HW151814   5.481   5.422   2.607 -0.8404 -0.0408 -1.2589
17212SOL    HW251815   5.592   5.304   2.622  0.1436  1.2238  2.3382
17213SOL     OW51816   3.458   7.565   5.491  0.3571  0.2865 -0.0842
17213SOL    HW151817   3.448   7.502   5.414 -0.3358 -0.5259  0.6554
17213SOL    HW251818   3.369   7.602   5.516 -0.2162 -2.6287  2.9255
17214SOL     OW51819   3.313   2.557   3.025 -0.0800  0.0152 -0.2938
17214SOL    HW151820   3.325   2.642   3.076 -0.6775  0.1416 -0.3550
17214SOL    HW251821   3.281   2.485   3.086 -0.7620  0.1568 -0.4799
17215SOL     OW51822   2.691   2.783   1.331 -0.0687  0.0310  0.2297
17215SOL    HW151823   2.738   2.699   1.302  1.2001  0.8950 -0.3140
17215SOL    HW251824   2.596   2.762   1.353  0.0444 -1.4315 -0.5380
17216SOL     OW51825   4.886   2.693   8.105  0.7253  0.3951 -0.0490
17216SOL    HW151826   4.846   2.784   8.115  1.8373  1.1339 -1.6552
17216SOL    HW251827   4.841   2.645   8.030  1.2871  0.3269 -0.3516
17217SOL     OW51828   3.593   7.345   2.312  0.0045  0.6233  0.1312
17217SOL    HW151829   3.602   7.315   2.217  0.6358  0.0793  0.3560
17217SOL    HW251830   3.643   7.430   2.325  0.7835  0.1620  0.2104
17218SOL     OW51831   8.673   0.326   6.414  0.0810 -0.3645 -0.9435
17218SOL    HW151832   8.657   0.378   6.330  2.3293 -0.0752 -1.2392
17218SOL    HW251833   8.746   0.369   6.466 -1.3080 -0.5139  1.2344
17219SOL     OW51834   7.764   3.713   2.628 -0.1027  1.0481 -0.0352
17219SOL    HW151835   7.742   3.776   2.553  0.7658  1.2036 -0.1633
17219SOL    HW251836   7.788   3.765   2.710 -0.5021  0.8774  0.1959
17220SOL     OW51837   1.235   8.155   8.684 -0.1790  0.6092 -0.1818
17220SOL    HW151838   1.272   8.235   8.732 -1.1946  0.9443  0.0709
17220SOL    HW251839   1.307   8.087   8.671  0.5310  1.2743  0.2253
17221SOL     OW51840   4.064   1.209   3.173 -0.2093  0.2895  0.1972
17221SOL    HW151841   4.059   1.177   3.079 -0.7872 -0.9140  0.6183
17221SOL    HW251842   4.159   1.230   3.197  0.4612 -2.6362  0.3631
17222SOL     OW51843   6.007   7.806   5.198  0.0654 -0.1554 -0.3908
17222SOL    HW151844   6.082   7.741   5.208  0.0439 -0.4042 -1.7583
17222SOL    HW251845   5.987   7.820   5.101  0.3228  2.1966 -0.1590
17223SOL     OW51846   3.212   3.185   6.690 -0.0924 -0.0442  0.0448
17223SOL    HW151847   3.151   3.159   6.765  0.0094 -1.9382 -0.4635
17223SOL    HW251848   3.302   3.145   6.705  0.6324  1.5188  0.0579
17224SOL     OW51849   8.654   8.302   4.196 -0.6249  0.2446  0.0894
17224SOL    HW151850   8.616   8.214   4.169 -0.4504  0.1519  0.1439
17224SOL    HW251851   8.580   8.364   4.221 -0.8429  0.5167 -1.1249
17225SOL     OW51852   7.727   3.111   6.777  0.4114  0.3377 -0.1689
17225SOL    HW151853   7.713   3.045   6.852  0.0256  0.3639 -0.2178
17225SOL    HW251854   7.738   3.061   6.691  1.4296  0.2790 -0.0198
17226SOL     OW51855   8.689   2.567   4.185 -0.1009 -0.5550 -0.3361
17226SOL    HW151856   8.616   2.514   4.143 -0.9125  1.5304 -1.7606
17226SOL    HW251857   8.684   2.558   4.285  1.0905 -4.6403 -0.4995
17227SOL     OW51858   3.666   2.847   7.792  0.3457  0.0757  0.0281
17227SOL    HW151859   3.687   2.769   7.851 -0.7297 -0.6534 -0.5109
17227SOL    HW251860   3.709   2.833   7.703 -1.6109 -1.0340 -0.8117
17228SOL     OW51861   6.185   7.246   6.603 -0.3374  0.1249  0.1606
17228SOL    HW151862   6.258   7.232   6.536 -1.6301 -3.1548 -0.7494
17228SOL    HW251863   6.129   7.325   6.575 -1.2841 -1.5435 -3.1698
17229SOL     OW51864   4.509   5.128   4.570 -0.3571 -0.0977 -0.2744
17229SOL    HW151865   4.479   5.155   4.661 -1.6666  0.3353 -0.7955
17229SOL    HW251866   4.436   5.077   4.525  1.0451 -2.1292 -0.3397
17230SOL     OW51867   2.644   7.531   0.300 -0.4350  0.1824  0.1235
17230SOL    HW151868   2.688   7.616   0.331 -0.3111  0.3353 -0.4498
17230SOL    HW251869   2.560   7.553   0.251  0.4704  0.0987 -1.5212
17231SOL     OW51870   4.376   2.551   0.971 -0.0711  0.6525  0.2933
17231SOL    HW151871   4.339   2.483   1.034  0.8782 -0.3109 -0.1651
17231SOL    HW251872   4.317   2.559   0.891  1.5047 -2.1874 -1.2980
17232SOL     OW51873   2.791   3.132   4.853  0.5383  0.0562 -0.0739
17232SOL    HW151874   2.731   3.209   4.872 -0.3486 -0.7293  0.3760
17232SOL    HW251875   2.760   3.052   4.904  0.7726 -0.9060 -1.3820
17233SOL     OW51876   7.686   2.205   7.752 -0.0865 -0.4636 -0.4068
17233SOL    HW151877   7.733   2.118   7.736 -0.6428 -1.0977  1.2334
17233SOL    HW251878   7.754   2.275   7.773  0.2765 -0.8148 -0.3888
17234SOL     OW51879   8.386   8.325   3.988 -0.1750 -0.2723  0.1276
17234SOL    HW151880   8.475   8.336   3.943 -0.2366  1.5470  0.3602
17234SOL    HW251881   8.387   8.372   4.076 -1.4466  0.0371 -0.0052
17235SOL     OW51882   1.436   0.289   1.071 -0.1204  0.3204  0.0771
17235SOL    HW151883   1.360   0.227   1.054 -1.0647  1.4894 -0.0931
17235SOL    HW251884   1.482   0.262   1.156 -1.8433  0.6339  1.1683
17236SOL     OW51885   5.244   0.730   2.320 -0.1078 -0.1607  1.0610
17236SOL    HW151886   5.309   0.654   2.321 -0.4921 -0.6079 -1.0277
17236SOL    HW251887   5.185   0.722   2.239 -0.4091  2.1699  0.9727
17237SOL     OW51888   1.655   4.918   2.623  0.3916  0.2006  0.3430
17237SOL    HW151889   1.729   4.893   2.561 -0.0876 -1.1711  0.3083
17237SOL    HW251890   1.677   4.886   2.715  0.4349  0.9572  0.6036
17238SOL     OW51891   7.910   7.133   2.351  0.4873  0.1071 -0.4816
17238SOL    HW151892   7.925   7.088   2.439 -3.0409  1.6926  1.1451
17238SOL    HW251893   7.965   7.217   2.348  2.4710 -1.1292 -0.9546
17239SOL     OW51894   6.718   0.894   7.047  0.5443  0.3027  0.0433
17239SOL    HW151895   6.721   0.794   7.055  2.6174  0.4288  1.6407
17239SOL    HW251896   6.746   0.921   6.955 -0.4405 -0.5556 -0.5386
17240SOL     OW51897   2.191   7.922   3.643  0.0295 -0.7099 -0.4045
17240SOL    HW151898   2.216   7.998   3.583 -0.5531 -0.5125 -0.4027
17240SOL    HW251899   2.153   7.958   3.728  2.6344 -0.9209  0.9474
17241SOL     OW51900   2.899   5.769   4.635  0.1259 -0.7822 -0.3612
17241SOL    HW151901   2.966   5.700   4.607  2.0270  0.6639  0.3943
17241SOL    HW251902   2.879   5.829   4.557  0.5537 -0.5612 -0.3025
17242SOL     OW51903   3.812   1.595   0.668  0.2620  0.2515 -0.3777
17242SOL    HW151904   3.802   1.657   0.746 -0.1724  0.6793 -0.7684
17242SOL    HW251905   3.728   1.594   0.615  0.5713  0.0034 -0.8710
17243SOL     OW51906   6.383   5.355   3.758 -0.0043  0.0595  0.2549
17243SOL    HW151907   6.385   5.258   3.784 -1.3664 -0.3545 -1.0775
17243SOL    HW251908   6.422   5.366   3.667 -1.0983  0.5481 -0.1714
17244SOL     OW51909   6.537   0.421   7.992  0.3846  0.6670 -0.3694
17244SOL    HW151910   6.464   0.489   7.989 -0.8744 -0.5279  1.1375
17244SOL    HW251911   6.546   0.386   8.085  2.5642  0.3962 -0.6333
17245SOL     OW51912   4.596   0.199   6.234 -0.3877  0.4969 -0.3872
17245SOL    HW151913   4.696   0.193   6.239 -0.3217 -0.5761 -2.1984
17245SOL    HW251914   4.556   0.119   6.280 -0.2009 -1.5828 -3.5287
17246SOL     OW51915   5.723   0.669   6.800  0.0886 -0.1589  0.0651
17246SOL    HW151916   5.710   0.667   6.701 -2.6823  1.4172  0.2929
17246SOL    HW251917   5.821   0.681   6.820  0.8204 -1.2253 -2.4105
17247SOL     OW51918   0.746   8.223   3.113  0.0768  0.5204  0.0651
17247SOL    HW151919   0.724   8.320   3.104 -0.8403  0.3030 -0.1591
17247SOL    HW251920   0.758   8.201   3.210  1.1369  1.0199  0.0657
17248SOL     OW51921   3.297   6.292   2.697  0.2237  0.4753 -0.5377
17248SOL    HW151922   3.209   6.255   2.726 -0.0779  0.7367 -1.1161
17248SOL    HW251923   3.300   6.390   2.718  0.8001  0.2562  0.4683
17249SOL     OW51924   1.180   7.065   4.572 -0.4844  0.2689 -0.1246
17249SOL    HW151925   1.199   7.049   4.669 -0.2779  0.5424 -0.1196
17249SOL    HW251926   1.223   7.150   4.543 -1.3478  0.6796 -0.2262
17250SOL     OW51927   8.116   7.134   8.041 -0.1008  0.2255  0.1649
17250SOL    HW151928   8.197   7.076   8.027 -0.4724  0.2824 -3.0129
17250SOL    HW251929   8.133   7.224   8.000 -1.4453  0.5342  0.2428
17251SOL     OW51930   7.260   4.640   2.211 -0.3291  0.0038 -0.1945
17251SOL    HW151931   7.250   4.725   2.263  0.2154 -0.1040  0.0908
17251SOL    HW251932   7.189   4.636   2.141 -0.4897  0.5946 -0.0745
17252SOL     OW51933   6.618   7.325   8.594 -0.5140  0.3670  0.4919
17252SOL    HW151934   6.596   7.232   8.621  3.1391 -0.9419 -0.4860
17252SOL    HW251935   6.648   7.377   8.674  0.7035 -0.3903  0.5467
17253SOL     OW51936   4.352   0.200   2.520  0.3748  0.0181 -0.8290
17253SOL    HW151937   4.379   0.284   2.473 -0.4467 -0.0811 -1.5093
17253SOL    HW251938   4.323   0.221   2.614  1.2093  0.3340 -0.6365
17254SOL     OW51939   4.093   7.477   7.922  0.2582 -0.3386 -0.0526
17254SOL    HW151940   4.073   7.557   7.978 -0.7677 -1.2346  0.9422
17254SOL    HW251941   4.187   7.481   7.889 -0.1887  1.9514 -1.2460
17255SOL     OW51942   3.022   4.409   6.876 -0.7407  0.2418 -0.3744
17255SOL    HW151943   3.057   4.373   6.963 -1.5380 -1.8463 -0.8692
17255SOL    HW251944   3.028   4.338   6.806 -0.0397  1.9119 -2.0816
17256SOL     OW51945   1.776   7.650   6.169 -0.4195  0.4221  0.6091
17256SOL    HW151946   1.837   7.598   6.110 -1.6141  0.6309 -0.8681
17256SOL    HW251947   1.827   7.725   6.212  0.6953 -0.3460  0.6452
17257SOL     OW51948   1.847   2.054   7.637 -0.0509 -0.2211 -0.0873
17257SOL    HW151949   1.926   2.112   7.613 -0.0315  1.3384  3.1943
17257SOL    HW251950   1.764   2.094   7.599  0.1783  1.1121  0.7384
17258SOL     OW51951   3.423   8.514   3.310  0.6360 -0.0461 -0.1414
17258SOL    HW151952   3.436   8.441   3.243 -3.1653 -1.3467  0.2584
17258SOL    HW251953   3.463   8.488   3.397 -2.0018 -2.6293  0.4640
17259SOL     OW51954   6.737   8.743   2.797 -0.0317 -0.3730 -0.4195
17259SOL    HW151955   6.828   8.710   2.823 -0.9381 -2.3047  0.4851
17259SOL    HW251956   6.711   8.702   2.710 -0.1293  0.0216 -0.5785
17260SOL     OW51957   8.578   5.250   8.728  0.2649  0.2119 -0.2027
17260SOL    HW151958   8.647   5.242   8.800  1.4505  1.8739 -1.0856
17260SOL    HW251959   8.589   5.174   8.664  0.6793 -0.0272  0.1467
17261SOL     OW51960   2.262   5.901   5.207  0.3406 -0.5848  0.1650
17261SOL    HW151961   2.264   5.975   5.140 -4.1700 -0.1027  0.2944
17261SOL    HW251962   2.267   5.813   5.159 -2.4059 -0.2394 -0.9381
17262SOL     OW51963   0.355   5.839   0.741  0.4727 -0.3866  0.6653
17262SOL    HW151964   0.278   5.901   0.727  2.0889  1.6136 -0.0354
17262SOL    HW251965   0.370   5.785   0.658  1.4249  1.2130 -0.2641
17263SOL     OW51966   8.482   8.019   5.596 -0.4350 -0.4009 -0.6160
17263SOL    HW151967   8.458   8.004   5.500 -2.3451  2.6027 -0.7448
17263SOL    HW251968   8.521   8.110   5.607  0.7104 -1.0674  1.3608
17264SOL     OW51969   8.143   6.354   0.605  0.4695 -0.0459  0.4868
17264SOL    HW151970   8.181   6.351   0.512 -0.0085  0.9120  0.2458
17264SOL    HW251971   8.175   6.275   0.656  0.5967 -0.6901 -0.5502
17265SOL     OW51972   8.116   6.669   5.418  0.4541  0.1366 -0.2870
17265SOL    HW151973   8.190   6.602   5.418  0.7537  0.4664  0.2958
17265SOL    HW251974   8.151   6.758   5.390  0.5023  0.5190  0.9100
17266SOL     OW51975   2.999   6.905   4.795 -0.4513 -0.1683  0.2882
17266SOL    HW151976   3.009   6.879   4.699 -0.7794 -1.5438  0.6055
17266SOL    HW251977   2.934   6.844   4.840 -1.2828  1.2435  1.0991
17267SOL     OW51978   6.018   1.625   7.277  0.0777  0.0552  0.1273
17267SOL    HW151979   5.954   1.689   7.234 -2.3356 -2.8230 -0.9353
17267SOL    HW251980   6.049   1.559   7.209  1.7398 -0.5149  1.3778
17268SOL     OW51981   0.261   1.497   2.819  0.4004 -0.1938  0.0664
17268SOL    HW151982   0.349   1.495   2.770 -1.9666 -0.9581 -4.7395
17268SOL    HW251983   0.239   1.405   2.852  0.6108 -0.3747 -0.2963
17269SOL     OW51984   2.872   6.643   2.097 -0.1492 -0.5878  0.0295
17269SOL    HW151985   2.869   6.552   2.056 -1.4588 -0.6878  0.2835
17269SOL    HW251986   2.899   6.710   2.029 -0.3807 -1.0167 -0.4885
17270SOL     OW51987   2.359   2.990   0.702  0.2240  0.0533  0.1454
17270SOL    HW151988   2.454   3.004   0.729  0.5150 -2.2684  0.5126
17270SOL    HW251989   2.340   3.041   0.618  1.2294  2.0071  1.0374
17271SOL     OW51990   4.059   6.893   4.029  0.3398  0.3929 -0.0609
17271SOL    HW151991   4.138   6.841   4.062  0.2927  0.9360  0.9560
17271SOL    HW251992   4.091   6.981   3.993  0.2069  0.6234  0.3745
17272SOL     OW51993   1.768   6.618   5.920  0.4333 -0.3158 -0.1724
17272SOL    HW151994   1.793   6.711   5.944 -2.4608  0.2354  1.1570
17272SOL    HW251995   1.709   6.619   5.838 -0.3059 -0.8560  0.3358
17273SOL     OW51996   3.960   1.962   0.776 -0.0700  0.0159  0.7587
17273SOL    HW151997   3.861   1.960   0.789  0.1316  0.0512  2.5867
17273SOL    HW251998   3.997   2.048   0.812  0.6344  0.0020  0.1022
17274SOL     OW51999   5.827   6.961   5.863  0.6779  0.4578 -0.3687
17274SOL    HW152000   5.849   6.874   5.820  0.1826  0.3409 -0.3891
17274SOL    HW252001   5.880   7.034   5.820  1.2391  0.1429 -0.2235
17275SOL     OW52002   2.904   6.263   8.136 -0.2399 -0.2055 -0.5741
17275SOL    HW152003   2.923   6.226   8.228 -1.3940  0.1219 -0.1873
17275SOL    HW252004   2.807   6.285   8.129 -0.0229  0.4458 -1.6443
17276SOL     OW52005   0.928   4.020   8.131 -0.0467 -0.2300 -0.3423
17276SOL    HW152006   1.026   4.009   8.116  0.0920 -0.3282  0.5484
17276SOL    HW252007   0.907   3.998   8.226 -0.8042  0.5679 -0.3109
17277SOL     OW52008   2.954   0.698   1.363  0.6971 -0.1550 -0.0089
17277SOL    HW152009   2.921   0.625   1.424 -0.8860  1.4796  1.2080
17277SOL    HW252010   2.915   0.685   1.272 -1.2451  0.2430  0.7207
17278SOL     OW52011   5.114   3.210   6.769 -0.0935  0.4141 -0.3548
17278SOL    HW152012   5.029   3.161   6.749 -0.1251  0.4829 -0.3892
17278SOL    HW252013   5.179   3.147   6.812  0.5053 -0.1221 -1.9754
17279SOL     OW52014   3.992   3.085   0.677 -0.2860 -0.1495  0.5009
17279SOL    HW152015   4.071   3.146   0.683 -0.5228  0.1541  0.5880
17279SOL    HW252016   3.976   3.041   0.765  0.2927 -0.8626  0.2586
17280SOL     OW52017   4.289   7.224   8.270 -0.1871 -0.0685  0.5563
17280SOL    HW152018   4.306   7.166   8.190  2.6459  1.6585 -0.2694
17280SOL    HW252019   4.202   7.272   8.259  0.7612  1.2509 -2.3555
17281SOL     OW52020   2.004   8.758   6.071  0.2111 -0.1033  0.5240
17281SOL    HW152021   2.016   8.774   5.973  0.1206  1.9455  0.8096
17281SOL    HW252022   2.092   8.766   6.117  0.2109 -0.7969  0.6526
17282SOL     OW52023   5.364   1.141   4.268  0.0357  0.3243 -0.6346
17282SOL    HW152024   5.421   1.215   4.233  0.4424 -0.4105 -1.5827
17282SOL    HW252025   5.358   1.069   4.200 -1.1409 -0.1024 -0.1068
17283SOL     OW52026   3.817   4.662   2.195  0.2199 -0.1903  0.0880
17283SOL    HW152027   3.743   4.727   2.215 -1.6197 -2.1231 -0.0689
17283SOL    HW252028   3.905   4.708   2.205 -0.9230  1.8198  1.7829
17284SOL     OW52029   3.388   2.211   3.513  0.0647  0.0319  0.5542
17284SOL    HW152030   3.291   2.186   3.514  0.2055 -0.6123 -0.5184
17284SOL    HW252031   3.399   2.304   3.548 -0.8103 -0.2700  1.6916
17285SOL     OW52032   5.894   2.644   8.590 -0.1645 -0.2605 -0.3606
17285SOL    HW152033   5.835   2.576   8.545 -1.5972  0.2359  0.6714
17285SOL    HW252034   5.910   2.721   8.528  0.2723 -0.8718 -1.0221
17286SOL     OW52035   8.444   2.604   6.339  0.5140 -0.1228  0.0054
17286SOL    HW152036   8.396   2.516   6.337  0.3393 -0.0164 -0.9757
17286SOL    HW252037   8.491   2.614   6.427  0.1023 -0.9594  0.3360
17287SOL     OW52038   5.056   4.547   0.097 -0.9794  0.3375  0.1192
17287SOL    HW152039   5.077   4.503   0.184  1.7125  0.6365 -0.2874
17287SOL    HW252040   5.037   4.478   0.028 -1.4676  0.0403  0.5451
17288SOL     OW52041   3.929   6.719   3.471  0.1433  0.0978  0.1205
17288SOL    HW152042   3.999   6.767   3.419 -0.0305 -1.8129 -2.0397
17288SOL    HW252043   3.840   6.729   3.426  0.0903 -2.0980 -0.3962
17289SOL     OW52044   8.777   7.069   3.469 -0.0290  0.3652  0.9347
17289SOL    HW152045   8.732   7.077   3.380  3.3341  0.2104 -0.9193
17289SOL    HW252046   8.728   7.002   3.525 -1.9015  0.0365 -0.9595
17290SOL     OW52047   6.694   4.236   7.720 -0.1399 -0.0694  0.0114
17290SOL    HW152048   6.767   4.242   7.652  0.5484  1.2605  0.8283
17290SOL    HW252049   6.717   4.166   7.788  1.0561  1.2256  0.9958
17291SOL     OW52050   8.230   0.420   1.641  0.3252  0.2316 -0.2652
17291SOL    HW152051   8.230   0.321   1.653 -0.1583  0.3523  0.7593
17291SOL    HW252052   8.283   0.462   1.714  1.3062  0.6853 -1.2061
17292SOL     OW52053   3.099   2.221   3.155 -0.2985 -0.4111 -0.1038
17292SOL    HW152054   3.182   2.197   3.105  0.5288  0.0654  1.0184
17292SOL    HW252055   3.122   2.272   3.237 -1.8231  1.5009 -0.7843
17293SOL     OW52056   2.568   0.863   0.976 -0.3042  0.1148  0.3422
17293SOL    HW152057   2.529   0.778   1.010  2.4768 -2.3826 -2.1244
17293SOL    HW252058   2.538   0.878   0.882  0.1883  1.2142  0.3433
17294SOL     OW52059   0.076   0.809   7.173 -0.3703  0.2556  0.2305
17294SOL    HW152060   0.059   0.734   7.237 -0.9894  0.7874  0.7215
17294SOL    HW252061   0.073   0.776   7.079  0.8018 -0.5920  0.4750
17295SOL     OW52062   8.102   8.702   2.290  0.0261  0.1909 -0.1240
17295SOL    HW152063   8.087   8.800   2.307 -3.1287 -0.0049 -1.1730
17295SOL    HW252064   8.151   8.691   2.203  0.3757  0.8171 -0.0169
17296SOL     OW52065   4.816   5.199   2.616 -0.0344  0.0563  0.3277
17296SOL    HW152066   4.725   5.182   2.654 -0.4201  2.3228  0.5517
17296SOL    HW252067   4.807   5.231   2.522  0.7808 -3.0061 -0.8933
17297SOL     OW52068   4.138   5.199   1.974 -0.4261  0.0330  0.7713
17297SOL    HW152069   4.134   5.159   1.883 -0.6925 -0.1992  0.8830
17297SOL    HW252070   4.106   5.293   1.972 -1.4511 -0.3044  0.8115
17298SOL     OW52071   1.199   3.734   4.128  0.5026 -0.4952  0.1816
17298SOL    HW152072   1.225   3.648   4.172 -1.3477 -0.9270  0.5451
17298SOL    HW252073   1.280   3.778   4.088  1.8365 -1.2967  1.9002
17299SOL     OW52074   4.746   8.778   3.621 -0.1673  0.0566  0.6084
17299SOL    HW152075   4.787   8.864   3.652  1.5800 -0.4102 -0.3007
17299SOL    HW252076   4.812   8.704   3.630 -1.0092 -0.8493 -0.3651
17300SOL     OW52077   2.769   2.733   8.755 -0.1210 -0.2528 -0.2589
17300SOL    HW152078   2.737   2.693   8.840 -1.4808  0.3728 -0.4479
17300SOL    HW252079   2.699   2.722   8.684  0.3247  0.6127 -0.8663
17301SOL     OW52080   1.602   2.445   5.006  0.2030  0.0655  0.3403
17301SOL    HW152081   1.558   2.518   5.058 -1.1589 -1.5088  1.5204
17301SOL    HW252082   1.603   2.361   5.060  1.0059 -1.0264 -1.2623
17302SOL     OW52083   4.866   8.164   6.864 -0.0237  0.2165  0.2721
17302SOL    HW152084   4.804   8.085   6.866  0.8768 -0.5193 -0.1561
17302SOL    HW252085   4.953   8.139   6.906 -0.2632  1.4920  1.6204
17303SOL     OW52086   4.109   6.482   3.034  0.1952  0.3628  0.5418
17303SOL    HW152087   4.112   6.474   3.133 -0.3159  0.7384  0.5934
17303SOL    HW252088   4.026   6.532   3.007  0.0854 -0.1422 -0.0943
17304SOL     OW52089   6.184   3.539   2.374  0.3319  0.2667 -0.4200
17304SOL    HW152090   6.190   3.633   2.406  1.3288 -0.2254  0.9169
17304SOL    HW252091   6.093   3.524   2.334  0.2163  1.8199 -0.8280
17305SOL     OW52092   7.840   7.908   2.825 -0.1856  0.6419  0.1332
17305SOL    HW152093   7.907   7.876   2.758  0.3047 -1.5082  1.5699
17305SOL    HW252094   7.755   7.856   2.815 -0.7367  1.5240  0.0721
17306SOL     OW52095   6.969   7.931   5.560  0.5709  0.2764 -0.7917
17306SOL    HW152096   6.941   7.998   5.491 -0.3113  0.0805 -0.6425
17306SOL    HW252097   6.951   7.838   5.525  1.7380  0.1114 -0.9806
17307SOL     OW52098   5.346   7.038   4.104  0.0335  0.3840 -0.7987
17307SOL    HW152099   5.416   7.003   4.167  0.0616  1.4097 -0.2340
17307SOL    HW252100   5.255   7.017   4.140  0.0148 -1.1523 -1.6469
17308SOL     OW52101   5.845   7.131   0.446  0.3896  0.0536  0.2505
17308SOL    HW152102   5.820   7.036   0.432 -3.0991  1.0397 -1.4348
17308SOL    HW252103   5.782   7.172   0.512  1.4246  1.3738  0.4621
17309SOL     OW52104   3.250   4.454   4.806  0.2717  0.2600  0.1536
17309SOL    HW152105   3.280   4.527   4.867  1.7822 -0.5878  0.4545
17309SOL    HW252106   3.246   4.368   4.856 -0.8410 -0.0183 -0.3727
17310SOL     OW52107   8.206   3.036   7.619  0.1270  0.0343  0.0850
17310SOL    HW152108   8.296   2.999   7.595  0.5686  0.6112  0.8004
17310SOL    HW252109   8.166   3.081   7.540  1.4602  1.7124  0.2989
17311SOL     OW52110   3.897   1.497   6.068  0.3040  0.0304  0.1703
17311SOL    HW152111   3.958   1.543   6.004 -0.2581  0.0394 -0.3762
17311SOL    HW252112   3.836   1.564   6.111  0.6318  0.0149  0.6669
17312SOL     OW52113   2.410   7.620   0.181  0.3194  0.3353  0.0577
17312SOL    HW152114   2.410   7.584   0.087  1.4082 -2.0656  0.9070
17312SOL    HW252115   2.332   7.582   0.230 -0.1280  1.4263  0.2195
17313SOL     OW52116   1.620   4.305   4.357 -0.0385  0.6279 -0.0320
17313SOL    HW152117   1.569   4.391   4.354 -0.0110  0.8349  2.9989
17313SOL    HW252118   1.564   4.235   4.402  1.1249 -0.0360  0.4193
17314SOL     OW52119   6.023   1.838   5.094 -0.1229 -0.1898 -0.2589
17314SOL    HW152120   6.117   1.803   5.101  0.1821  0.4311 -1.0773
17314SOL    HW252121   6.011   1.913   5.158  0.3974  0.6776 -1.1525
17315SOL     OW52122   4.853   6.503   5.556  0.2389  0.0237 -0.2478
17315SOL    HW152123   4.901   6.585   5.526 -1.3680  0.6065 -1.3790
17315SOL    HW252124   4.905   6.458   5.629  1.1605  2.0172  0.3806
17316SOL     OW52125   5.587   3.224   5.930  0.1893  0.5087 -0.5142
17316SOL    HW152126   5.614   3.320   5.921 -1.5666  0.9644 -1.3774
17316SOL    HW252127   5.549   3.209   6.021 -0.0117  0.7587 -0.5570
17317SOL     OW52128   4.433   4.747   7.336 -0.0558  0.0562  0.1686
17317SOL    HW152129   4.457   4.826   7.279 -0.5516 -1.3195 -2.0859
17317SOL    HW252130   4.333   4.741   7.344 -0.0089 -0.1251  0.6615
17318SOL     OW52131   1.485   7.216   7.055 -0.5183 -0.1617 -0.0683
17318SOL    HW152132   1.414   7.273   7.013 -0.3730 -1.1220 -1.7130
17318SOL    HW252133   1.464   7.120   7.040  0.7728 -0.4789  0.0259
17319SOL     OW52134   5.616   6.104   0.075 -0.3897 -0.0851  0.6815
17319SOL    HW152135   5.535   6.073   0.124 -0.5263  0.7207  0.9652
17319SOL    HW252136   5.634   6.200   0.096  0.6080 -0.2412  0.5781
17320SOL     OW52137   3.280   4.292   3.649 -0.2151 -0.7535 -0.0484
17320SOL    HW152138   3.358   4.280   3.589  0.1331  0.1470  0.2160
17320SOL    HW252139   3.196   4.292   3.594  0.0916 -0.0076 -0.5404
17321SOL     OW52140   3.420   2.466   3.582  0.3705 -0.3351  0.1923
17321SOL    HW152141   3.454   2.517   3.503  0.6324 -1.2232 -0.2901
17321SOL    HW252142   3.451   2.510   3.666 -0.4896  1.0079 -0.1806
17322SOL     OW52143   7.006   2.810   2.588  0.3944 -0.1075 -0.0124
17322SOL    HW152144   7.033   2.786   2.681 -0.0022  2.5852  0.8717
17322SOL    HW252145   6.910   2.786   2.573  0.6371 -1.1421  0.0109
17323SOL     OW52146   4.013   8.475   4.587  0.2647 -0.0169 -0.1850
17323SOL    HW152147   3.948   8.506   4.517  0.1524 -1.3707 -0.7063
17323SOL    HW252148   3.983   8.386   4.623 -0.0131  0.9176  2.0429
17324SOL     OW52149   3.161   3.682   4.364 -0.1235 -0.5866 -0.6308
17324SOL    HW152150   3.110   3.651   4.445 -0.9044  0.3822 -0.7250
17324SOL    HW252151   3.102   3.677   4.284 -0.7781  2.2406 -0.4578
17325SOL     OW52152   6.945   0.482   8.674 -0.2398 -0.2969  0.3907
17325SOL    HW152153   6.850   0.503   8.697 -0.5252 -1.9287  0.8411
17325SOL    HW252154   6.985   0.559   8.624 -1.5725  0.7012  0.7965
17326SOL     OW52155   3.195   1.731   5.704 -0.2890 -0.0750 -0.6806
17326SOL    HW152156   3.145   1.795   5.646 -0.9738 -0.4903 -0.5689
17326SOL    HW252157   3.202   1.643   5.656 -2.0424 -0.8407  0.3682
17327SOL     OW52158   5.810   2.799   2.009  0.6204  0.1627 -0.3732
17327SOL    HW152159   5.828   2.813   1.911  2.7053 -1.7087 -0.3358
17327SOL    HW252160   5.743   2.726   2.021  0.4678  0.2998 -0.3734
17328SOL     OW52161   3.713   3.252   8.386  0.1457 -0.9233 -0.1987
17328SOL    HW152162   3.657   3.211   8.457 -0.0077 -1.9037 -0.8624
17328SOL    HW252163   3.682   3.345   8.368 -0.2982 -0.9359  0.4775
17329SOL     OW52164   7.722   1.851   3.238 -0.4567  0.0992 -0.0524
17329SOL    HW152165   7.733   1.844   3.337 -2.4671  0.4930  0.2522
17329SOL    HW252166   7.785   1.789   3.192 -0.1114 -0.7457  1.5159
17330SOL     OW52167   8.015   0.797   2.994 -0.3207  0.0453 -0.1022
17330SOL    HW152168   7.963   0.877   3.024 -1.0720 -1.0932  1.8473
17330SOL    HW252169   8.067   0.760   3.071  2.7927  0.6219 -1.7890
17331SOL     OW52170   8.795   4.866   1.229 -0.6391 -0.3493 -0.2211
17331SOL    HW152171   8.700   4.847   1.255 -0.4271 -0.2308  0.6750
17331SOL    HW252172   8.855   4.851   1.308  0.1542 -0.9269 -0.9167
17332SOL     OW52173   0.370   1.668   8.569 -0.3066 -0.7328  0.1263
17332SOL    HW152174   0.390   1.763   8.593  0.0221  0.0946 -2.9624
17332SOL    HW252175   0.275   1.647   8.592  0.1296 -0.3493  2.6052
17333SOL     OW52176   0.402   3.312   5.427  0.0194  0.1088 -0.3002
17333SOL    HW152177   0.425   3.321   5.331  1.4887 -0.4317 -0.0302
17333SOL    HW252178   0.332   3.241   5.439  3.2684 -3.5113 -0.6451
17334SOL     OW52179   2.789   4.049   5.528  0.1636  0.2316  0.0557
17334SOL    HW152180   2.735   4.059   5.445 -0.0826 -0.6462  0.1002
17334SOL    HW252181   2.867   4.111   5.525  0.5365 -0.2756 -1.1458
17335SOL     OW52182   5.530   3.727   5.194 -0.2627 -0.3334  0.0744
17335SOL    HW152183   5.528   3.821   5.228 -0.0842 -0.9000  1.7414
17335SOL    HW252184   5.472   3.669   5.251 -0.7463 -1.1704 -1.2120
17336SOL     OW52185   5.517   8.702   0.316 -0.1640 -0.4807 -0.4135
17336SOL    HW152186   5.577   8.653   0.379 -0.4670 -0.9209 -0.4671
17336SOL    HW252187   5.484   8.640   0.246 -1.3057 -0.4339  0.0664
17337SOL     OW52188   4.985   2.701   1.164 -0.1441  0.0554 -0.2261
17337SOL    HW152189   4.973   2.755   1.247 -0.2974 -1.2869  0.6703
17337SOL    HW252190   4.899   2.698   1.113 -0.0228  0.9655 -0.4987
17338SOL     OW52191   8.676   1.738   8.290 -0.3956  0.1502 -0.5703
17338SOL    HW152192   8.629   1.743   8.202 -2.4066  0.8807  0.4919
17338SOL    HW252193   8.747   1.808   8.294 -3.4321  3.4506  0.0728
17339SOL     OW52194   2.022   2.637   3.910 -0.4405  0.0144  0.1170
17339SOL    HW152195   1.943   2.577   3.901 -0.2437 -0.2519  0.1450
17339SOL    HW252196   2.106   2.584   3.898 -0.2154  0.0211  1.5192
17340SOL     OW52197   4.231   1.233   2.153  0.3597 -0.2353  0.2066
17340SOL    HW152198   4.223   1.134   2.157  2.1398 -0.5742 -2.1291
17340SOL    HW252199   4.155   1.271   2.101  1.8507 -0.9572 -2.7309
17341SOL     OW52200   2.692   7.942   2.065  0.6779  0.2495  0.3324
17341SOL    HW152201   2.789   7.964   2.057  0.6386  0.4835  0.4941
17341SOL    HW252202   2.675   7.851   2.028  0.8870  0.3849 -0.1047
17342SOL     OW52203   2.458   1.782   4.139 -0.0966 -0.1896  0.1514
17342SOL    HW152204   2.501   1.851   4.197 -0.9506  0.4556  0.0270
17342SOL    HW252205   2.413   1.713   4.195 -0.8284  0.3737  0.2546
17343SOL     OW52206   8.440   7.449   4.621  0.6858 -0.1030 -0.5196
17343SOL    HW152207   8.468   7.496   4.704  0.1739  0.9255 -0.9122
17343SOL    HW252208   8.500   7.474   4.545  1.0782 -0.9419 -0.4932
17344SOL     OW52209   3.160   0.580   3.645  0.7594  0.1068 -0.1358
17344SOL    HW152210   3.139   0.672   3.612  0.7630  0.0843 -0.2010
17344SOL    HW252211   3.094   0.553   3.715  0.9835  0.3066  0.1540
17345SOL     OW52212   4.984   1.413   6.800 -0.5330  0.0043 -0.0309
17345SOL    HW152213   5.005   1.416   6.898  1.4159  0.1011 -0.3958
17345SOL    HW252214   5.064   1.445   6.748 -0.3197 -2.9363 -1.7781
17346SOL     OW52215   6.573   1.096   2.329 -0.1863  0.6069  0.0011
17346SOL    HW152216   6.615   1.161   2.393  1.2331  2.5255 -2.6856
17346SOL    HW252217   6.473   1.107   2.331 -0.5100 -1.3653  3.7445
17347SOL     OW52218   6.199   7.745   6.265  0.2972  0.0478  0.2840
17347SOL    HW152219   6.273   7.731   6.331  0.7702  0.3139 -0.1814
17347SOL    HW252220   6.112   7.753   6.314  0.6670  0.4671  0.8918
17348SOL     OW52221   8.039   6.039   4.638  0.1539  0.2046  0.0117
17348SOL    HW152222   7.967   6.017   4.704  0.5590 -1.5064 -0.0705
17348SOL    HW252223   8.126   6.050   4.685  0.3035 -0.2808 -0.1412
17349SOL     OW52224   4.927   3.405   3.867  0.0444  0.2633  0.0250
17349SOL    HW152225   4.857   3.399   3.796 -0.7981 -1.6104  0.9632
17349SOL    HW252226   4.998   3.337   3.850  0.0355  0.0615  0.7810
17350SOL     OW52227   8.780   7.342   7.932  0.3089 -0.0206 -0.1454
17350SOL    HW152228   8.874   7.372   7.951  0.2228  0.9767 -1.1555
17350SOL    HW252229   8.737   7.311   8.017  0.7521  1.8476  0.8332
17351SOL     OW52230   0.451   4.448   4.420  0.3737 -0.4774 -0.3942
17351SOL    HW152231   0.373   4.509   4.412 -1.8725 -3.2249 -0.7197
17351SOL    HW252232   0.521   4.491   4.478 -1.3329  2.0706 -0.0797
17352SOL     OW52233   5.795   1.428   1.819 -0.0062 -0.0836  0.2132
17352SOL    HW152234   5.869   1.379   1.864  0.3421 -0.1291 -0.3970
17352SOL    HW252235   5.722   1.363   1.794  0.4201 -0.2908 -0.5263
17353SOL     OW52236   0.423   5.856   5.934 -0.7650  0.0643 -0.1552
17353SOL    HW152237   0.362   5.934   5.943 -0.3613  0.3767 -0.0928
17353SOL    HW252238   0.516   5.888   5.913 -0.9412 -0.4718 -1.9233
17354SOL     OW52239   1.538   2.912   0.022 -0.0947  0.3700  0.0898
17354SOL    HW152240   1.443   2.885   0.008 -0.7178  2.3954  0.1155
17354SOL    HW252241   1.598   2.840  -0.013 -1.6321  0.2611 -2.6002
17355SOL     OW52242   7.339   1.831   4.223 -0.1632  0.9111  0.2118
17355SOL    HW152243   7.254   1.799   4.264 -1.2938 -1.2604 -3.3153
17355SOL    HW252244   7.415   1.776   4.257 -1.1815 -1.3927 -0.9747
17356SOL     OW52245   4.533   5.548   5.861  0.5444 -0.3644 -0.8020
17356SOL    HW152246   4.474   5.575   5.785 -1.6019  0.4028  1.0200
17356SOL    HW252247   4.552   5.450   5.855 -2.1243 -0.9488 -0.7297
17357SOL     OW52248   4.441   6.733   3.452 -0.0552  0.1858 -0.2071
17357SOL    HW152249   4.510   6.796   3.488  1.1904  0.0064 -2.1079
17357SOL    HW252250   4.410   6.765   3.362 -1.9257 -0.1392  0.2911
17358SOL     OW52251   7.002   2.430   5.006  0.6151  0.3247 -0.2522
17358SOL    HW152252   6.928   2.385   4.955 -0.6206  1.7909  0.1593
17358SOL    HW252253   7.007   2.392   5.098  0.2519  0.3332 -0.2279
17359SOL     OW52254   5.995   8.590   4.404 -0.5344  0.3098 -0.4252
17359SOL    HW152255   5.976   8.530   4.326 -0.2842 -0.0118 -0.2433
17359SOL    HW252256   5.967   8.683   4.382 -0.4951  0.2161 -0.8890
17360SOL     OW52257   7.905   6.253   1.059 -0.1068 -0.1902  0.1635
17360SOL    HW152258   7.968   6.297   1.123  0.2827 -0.1685 -0.2290
17360SOL    HW252259   7.819   6.233   1.105 -0.9092  2.4251 -0.0289
17361SOL     OW52260   7.724   6.848   4.784  0.0471 -0.1926  0.0327
17361SOL    HW152261   7.709   6.751   4.761 -0.2224 -0.1362 -0.0261
17361SOL    HW252262   7.711   6.861   4.882  1.9680 -0.5866  0.3766
17362SOL     OW52263   0.111   4.236   7.075 -0.3274 -0.1745  0.3433
17362SOL    HW152264   0.143   4.142   7.060  0.2878  0.1924 -0.7656
17362SOL    HW252265   0.130   4.291   6.994 -0.3048  1.0240  1.1370
17363SOL     OW52266   4.208   1.748   4.477 -0.4706  0.2656  0.2992
17363SOL    HW152267   4.280   1.687   4.511 -1.2136 -0.2890  0.9083
17363SOL    HW252268   4.133   1.694   4.440  0.8849  0.7953 -3.7317
17364SOL     OW52269   7.529   2.576   8.422 -0.5776  0.4807  0.4236
17364SOL    HW152270   7.602   2.520   8.383  1.0024  2.0302  1.0244
17364SOL    HW252271   7.515   2.658   8.366 -1.6789  0.3467  0.4726
17365SOL     OW52272   5.972   3.766   1.004  0.4158  0.3311  0.0437
17365SOL    HW152273   6.071   3.756   0.990  0.0691 -0.3707 -2.3147
17365SOL    HW252274   5.923   3.737   0.922 -1.7339  1.5332  0.8014
17366SOL     OW52275   7.382   2.502   4.485 -0.4240 -0.4222  0.1248
17366SOL    HW152276   7.455   2.433   4.485  2.7626  2.6351 -0.5311
17366SOL    HW252277   7.348   2.514   4.578  0.0935 -1.7306  0.5102
17367SOL     OW52278   5.367   7.242   2.911  0.2773 -0.4473 -0.1415
17367SOL    HW152279   5.349   7.186   2.830 -1.5178  0.5330 -0.4825
17367SOL    HW252280   5.407   7.185   2.983 -0.2345 -1.8483 -0.9279
17368SOL     OW52281   4.421   0.945   7.889  0.7448  0.8209 -0.1065
17368SOL    HW152282   4.406   1.006   7.812  0.0462  0.4067 -0.3087
17368SOL    HW252283   4.430   0.999   7.973  3.3981  1.4234 -0.6734
17369SOL     OW52284   4.857   0.254   6.467  0.3441 -0.2737 -0.0287
17369SOL    HW152285   4.853   0.342   6.421 -2.0003 -0.8505 -1.1141
17369SOL    HW252286   4.870   0.182   6.399 -2.6326 -1.0976  0.1006
17370SOL     OW52287   2.655   5.429   1.502 -0.2179 -0.4889  0.0190
17370SOL    HW152288   2.593   5.355   1.475  1.4229 -1.0667 -2.4319
17370SOL    HW252289   2.675   5.487   1.423  2.0025 -0.0480  0.8348
17371SOL     OW52290   4.700   2.119   7.795  0.1849 -0.0130  0.3378
17371SOL    HW152291   4.634   2.043   7.794  1.6229 -1.3103 -0.1518
17371SOL    HW252292   4.757   2.115   7.713  1.1025  0.8631  0.9116
17372SOL     OW52293   3.412   6.398   6.534  0.0477 -0.3595  0.4619
17372SOL    HW152294   3.484   6.360   6.591  0.7882 -1.0245 -0.8619
17372SOL    HW252295   3.367   6.324   6.483 -1.4090  0.0721  1.0624
17373SOL     OW52296   0.669   0.876   8.266 -0.1368 -0.0439  0.1456
17373SOL    HW152297   0.586   0.821   8.269 -0.8485  1.0395  1.2837
17373SOL    HW252298   0.749   0.816   8.258 -1.0441 -1.0528 -2.7278
17374SOL     OW52299   2.728   4.854   4.648  0.1317  0.2969  0.4386
17374SOL    HW152300   2.633   4.873   4.623  0.0168 -0.3664  0.3696
17374SOL    HW252301   2.778   4.941   4.654 -0.6681  0.7131  1.2719
17375SOL     OW52302   7.200   3.294   2.594 -0.0938 -0.7066 -0.0939
17375SOL    HW152303   7.250   3.310   2.679 -1.4016 -0.0361  0.5759
17375SOL    HW252304   7.163   3.201   2.595 -1.0834 -0.3343  0.6349
17376SOL     OW52305   4.791   3.400   3.545  0.4180 -0.1037 -0.2947
17376SOL    HW152306   4.695   3.425   3.555  0.5067 -0.3530  1.5574
17376SOL    HW252307   4.835   3.462   3.480 -1.1957 -0.6182 -1.9508
17377SOL     OW52308   6.217   3.730   6.633 -0.4015  0.0262  0.5217
17377SOL    HW152309   6.272   3.670   6.690 -0.0331  1.2769  1.5434
17377SOL    HW252310   6.130   3.749   6.679  0.7758  2.8143  1.8713
17378SOL     OW52311   8.725   2.741   5.341 -0.0250  0.3759  0.1552
17378SOL    HW152312   8.795   2.805   5.310 -0.4011  0.7284  0.0255
17378SOL    HW252313   8.724   2.738   5.441 -1.2000  1.9378  0.2320
17379SOL     OW52314   1.639   8.169   8.318 -0.3359 -0.2535  0.3332
17379SOL    HW152315   1.673   8.229   8.390 -2.3926  1.1037  0.2553
17379SOL    HW252316   1.681   8.195   8.230 -2.1798  2.0875  0.0488
17380SOL     OW52317   6.175   4.205   2.645  0.1029 -0.3096 -0.9067
17380SOL    HW152318   6.144   4.111   2.658 -1.9549  0.6314  1.7229
17380SOL    HW252319   6.098   4.262   2.617  1.2873  0.6761 -2.3113
17381SOL     OW52320   8.294   1.062   6.340 -0.0468 -0.1667  0.6244
17381SOL    HW152321   8.195   1.061   6.350 -0.1240  0.2933 -0.0425
17381SOL    HW252322   8.328   1.155   6.357  0.0073  0.2460 -1.4889
17382SOL     OW52323   2.773   3.533   4.763  0.4833  0.6725 -0.0644
17382SOL    HW152324   2.803   3.499   4.674  0.4376 -1.1453  0.5768
17382SOL    HW252325   2.848   3.582   4.807  0.6354  1.2263 -0.9083
17383SOL     OW52326   2.902   6.832   2.670  0.4427  0.5406 -0.2609
17383SOL    HW152327   2.966   6.874   2.605  0.9760 -1.5993 -1.2107
17383SOL    HW252328   2.921   6.734   2.677  1.9526  0.8762  4.8782
17384SOL     OW52329   4.732   7.023   3.806  0.3620 -0.2118  0.2904
17384SOL    HW152330   4.737   7.099   3.741 -0.1687  0.3627  0.9002
17384SOL    HW252331   4.824   6.998   3.834  0.5040  1.4650  1.4796
17385SOL     OW52332   4.315   7.804   1.179  0.5096 -0.0076  0.5574
17385SOL    HW152333   4.351   7.712   1.168 -0.3009 -0.1260 -1.6480
17385SOL    HW252334   4.235   7.802   1.238 -0.4526 -1.0201 -0.7325
17386SOL     OW52335   1.113   0.071   4.815  0.7813 -0.7447  0.4801
17386SOL    HW152336   1.097  -0.022   4.782  2.2273 -0.9130  0.1792
17386SOL    HW252337   1.067   0.084   4.903 -0.9407 -1.1348 -0.3166
17387SOL     OW52338   8.366   0.547   2.193 -0.0369 -0.3516 -0.7042
17387SOL    HW152339   8.423   0.599   2.256  0.5627 -0.7908 -0.8773
17387SOL    HW252340   8.279   0.524   2.238 -0.5450  1.2481 -0.8158
17388SOL     OW52341   2.815   3.342   8.651 -0.1882 -0.0977  0.1942
17388SOL    HW152342   2.804   3.413   8.721 -1.9714 -0.2800  0.1423
17388SOL    HW252343   2.727   3.324   8.608  0.1680 -2.4557  0.3060
17389SOL     OW52344   0.689   2.226   2.124  0.0503  0.3315  0.3938
17389SOL    HW152345   0.611   2.272   2.165 -0.2914 -0.9098  1.1953
17389SOL    HW252346   0.703   2.137   2.168  0.8353 -0.2429 -0.9216
17390SOL     OW52347   1.687   4.281   3.302  0.3092  0.3879  0.3961
17390SOL    HW152348   1.629   4.346   3.352  2.1620  1.3798  1.3640
17390SOL    HW252349   1.765   4.256   3.359  0.8329 -0.9503 -0.8498
17391SOL     OW52350   7.589   1.973   6.069  0.0155 -0.3722  0.0150
17391SOL    HW152351   7.578   1.905   6.142  0.3491  0.7533  1.1359
17391SOL    HW252352   7.538   2.056   6.091  0.5467  0.1882 -0.7866
17392SOL     OW52353   5.833   4.113   0.886  0.0872  0.0964 -0.4193
17392SOL    HW152354   5.785   4.192   0.925  0.3895  0.5954 -1.0393
17392SOL    HW252355   5.790   4.088   0.799 -0.5270 -0.9519  0.1668
17393SOL     OW52356   1.662   2.932   3.636 -0.1414 -0.0869 -0.0092
17393SOL    HW152357   1.695   2.897   3.724  0.3180  3.1678  1.2457
17393SOL    HW252358   1.710   2.884   3.562  1.9046 -0.6899  1.5865
17394SOL     OW52359   6.975   2.784   5.576  0.0002  0.6365 -0.1263
17394SOL    HW152360   6.929   2.695   5.584  0.2135  0.5257 -0.1194
17394SOL    HW252361   6.968   2.817   5.482 -1.5246  1.4026  0.2274
17395SOL     OW52362   6.579   6.438   0.528 -0.2576 -0.1453 -0.2522
17395SOL    HW152363   6.595   6.393   0.616  1.3772  1.4002  0.2854
17395SOL    HW252364   6.660   6.428   0.470 -0.0777  1.5547 -0.3383
17396SOL     OW52365   6.165   8.831   7.274 -0.2645 -0.1752  0.2921
17396SOL    HW152366   6.136   8.926   7.258 -1.6732 -0.3050  1.7826
17396SOL    HW252367   6.262   8.822   7.255 -0.2371  1.4224 -0.4754
17397SOL     OW52368   3.099   1.171   5.378 -0.3953  0.5791  0.0521
17397SOL    HW152369   3.151   1.195   5.460  1.0032 -0.8530 -0.3566
17397SOL    HW252370   3.155   1.112   5.320 -2.3952 -0.7952 -0.5677
17398SOL     OW52371   7.972   1.129   4.790  0.4483 -0.4988 -0.4856
17398SOL    HW152372   7.975   1.034   4.821 -0.8728 -0.0825  1.0612
17398SOL    HW252373   7.893   1.143   4.730  0.7840 -0.4276 -0.9161
17399SOL     OW52374   8.591   2.147   8.221  0.3945  0.3486  0.6961
17399SOL    HW152375   8.539   2.232   8.232 -0.5243  0.0609 -1.1074
17399SOL    HW252376   8.570   2.086   8.298  0.6627  1.5149  1.7357
17400SOL     OW52377   5.568   1.901   1.234 -0.8186 -0.4673  0.2271
17400SOL    HW152378   5.518   1.947   1.307 -0.8351 -1.0367  0.5784
17400SOL    HW252379   5.641   1.845   1.273 -0.3649 -0.2069 -0.2367
17401SOL     OW52380   2.623   8.383   3.484  0.4338 -0.1546 -0.2770
17401SOL    HW152381   2.711   8.337   3.497  0.2296 -0.5793 -0.3797
17401SOL    HW252382   2.628   8.441   3.403  1.0646  0.9301  0.4975
17402SOL     OW52383   8.767   3.347   1.814 -0.0259 -0.2425 -0.0874
17402SOL    HW152384   8.847   3.402   1.838 -1.2622 -0.0863  4.5670
17402SOL    HW252385   8.685   3.405   1.813 -0.7300 -1.2025  0.1909
17403SOL     OW52386   1.947   3.232   1.891 -0.0647 -0.3040 -0.1933
17403SOL    HW152387   2.034   3.275   1.915  1.1869 -2.5166 -0.5445
17403SOL    HW252388   1.943   3.216   1.793 -0.4812 -1.0084 -0.0700
17404SOL     OW52389   5.671   3.839   4.675 -0.3745  0.2920 -0.4955
17404SOL    HW152390   5.594   3.813   4.618  0.5940 -2.8150 -0.5596
17404SOL    HW252391   5.645   3.831   4.772  0.0802 -1.7599 -0.5034
17405SOL     OW52392   2.961   0.518   3.863 -0.5087 -0.0254  0.5126
17405SOL    HW152393   2.929   0.423   3.868 -1.8846  0.4493  1.2536
17405SOL    HW252394   2.988   0.548   3.955  0.4532  0.1422  0.1845
17406SOL     OW52395   1.406   4.573   1.378 -0.1403  0.7524  0.2159
17406SOL    HW152396   1.352   4.582   1.294  0.5482  2.4287 -0.0969
17406SOL    HW252397   1.345   4.551   1.454 -0.8389 -0.3544 -0.6303
17407SOL     OW52398   4.122   7.095   6.999 -0.2186  0.1150  0.3699
17407SOL    HW152399   4.061   7.042   6.940  0.6258 -1.5133  0.9281
17407SOL    HW252400   4.136   7.185   6.958 -1.9522  0.0785 -0.4209
17408SOL     OW52401   1.135   3.290   4.819  0.0361  0.3577  0.2669
17408SOL    HW152402   1.211   3.296   4.883  1.2623  0.1521 -1.1026
17408SOL    HW252403   1.109   3.195   4.806 -1.8126  0.5351  2.1963
17409SOL     OW52404   8.125   2.707   3.461  0.3741  0.0501  0.0942
17409SOL    HW152405   8.039   2.744   3.426 -0.0202  0.1471  1.1162
17409SOL    HW252406   8.125   2.713   3.561  1.5930  0.1009  0.1074
17410SOL     OW52407   1.851   8.478   7.990 -0.2382  0.1789 -0.0597
17410SOL    HW152408   1.812   8.569   7.999 -1.4306 -0.2860 -0.4201
17410SOL    HW252409   1.914   8.476   7.912 -0.4546  0.6070 -0.2454
17411SOL     OW52410   0.491   3.967   1.355 -0.1769  0.0772 -0.2863
17411SOL    HW152411   0.504   3.997   1.450  1.4988 -0.7965 -0.2092
17411SOL    HW252412   0.534   3.879   1.341 -0.0806  0.3498 -1.9712
17412SOL     OW52413   5.265   5.155   7.763 -0.2851 -0.2427  0.0184
17412SOL    HW152414   5.312   5.093   7.825 -1.7741 -0.4002  1.0248
17412SOL    HW252415   5.326   5.232   7.740  0.5649 -0.6053  1.0068
17413SOL     OW52416   5.412   4.302   4.562  0.1252  0.1184 -0.0093
17413SOL    HW152417   5.485   4.350   4.512  0.6021 -0.7477 -0.1655
17413SOL    HW252418   5.339   4.278   4.499  0.1767  0.0854 -0.0571
17414SOL     OW52419   6.059   7.164   3.332  0.2390  0.6303  0.3265
17414SOL    HW152420   6.143   7.112   3.314 -0.0731  0.2803 -0.1328
17414SOL    HW252421   5.988   7.101   3.363 -1.0210  0.2511 -2.9419
17415SOL     OW52422   8.427   6.718   5.258 -0.7943 -0.0401 -0.4855
17415SOL    HW152423   8.501   6.781   5.281  0.8955 -2.0740 -0.0781
17415SOL    HW252424   8.343   6.770   5.245  0.5958  2.3409 -0.6719
17416SOL     OW52425   1.969   5.220   5.407 -0.2577 -0.5534 -0.0320
17416SOL    HW152426   2.042   5.270   5.454  0.0294  0.0967 -1.1148
17416SOL    HW252427   1.943   5.140   5.460  1.4000 -0.9246  0.2748
17417SOL     OW52428   5.400   0.169   0.728 -0.3601  0.1856  0.3941
17417SOL    HW152429   5.326   0.165   0.660 -1.0297  1.8210  0.9944
17417SOL    HW252430   5.362   0.157   0.819  0.0820  1.1714  0.7213
17418SOL     OW52431   3.505   8.311   2.767 -0.0585  0.1595  0.8434
17418SOL    HW152432   3.471   8.362   2.688  0.7238 -0.4327  0.1043
17418SOL    HW252433   3.591   8.351   2.798 -0.5229  0.5857  1.6112
17419SOL     OW52434   2.205   8.153   8.752 -0.4224 -0.3071 -0.3671
17419SOL    HW152435   2.251   8.165   8.664 -0.7293 -1.1414 -0.6503
17419SOL    HW252436   2.145   8.231   8.769  0.0831  0.1407 -0.6193
17420SOL     OW52437   0.899   8.772   7.059 -0.1660  0.0735 -0.0235
17420SOL    HW152438   0.859   8.733   7.142 -2.5155  2.0182 -0.1539
17420SOL    HW252439   0.981   8.823   7.083 -0.9894  0.8882  1.1938
17421SOL     OW52440   8.536   6.623   3.825 -0.2352 -0.1305 -0.2618
17421SOL    HW152441   8.454   6.639   3.770  0.0121  2.7351  0.0396
17421SOL    HW252442   8.606   6.580   3.768 -1.1223 -0.3881 -1.1880
17422SOL     OW52443   4.132   6.985   0.155 -0.1736  0.0515 -0.0003
17422SOL    HW152444   4.147   7.027   0.244 -0.7632  0.6110 -0.1629
17422SOL    HW252445   4.208   6.923   0.135  0.0839  0.0966  0.7805
17423SOL     OW52446   4.798   8.730   5.427  0.3511  0.6289 -0.2658
17423SOL    HW152447   4.819   8.650   5.372  2.6202  0.2792  0.9996
17423SOL    HW252448   4.813   8.813   5.373  2.8565  0.3031 -0.1677
17424SOL     OW52449   1.305   7.096   2.621  0.3420  0.1558 -0.5052
17424SOL    HW152450   1.321   7.195   2.626 -0.1595  0.1983  0.6108
17424SOL    HW252451   1.365   7.050   2.686  0.2638 -0.2322 -0.7097
17425SOL     OW52452   0.429   1.926   8.683 -0.6417 -0.1330  0.2815
17425SOL    HW152453   0.372   2.004   8.656 -0.7752  0.2374  1.5519
17425SOL    HW252454   0.395   1.889   8.769  0.2297 -0.7656  0.3579
17426SOL     OW52455   3.480   7.631   2.115 -0.2850  0.0604  0.1267
17426SOL    HW152456   3.452   7.677   2.199 -0.7268 -1.3466  0.7883
17426SOL    HW252457   3.406   7.572   2.082  0.0728  0.1875 -0.9608
17427SOL     OW52458   7.561   5.467   8.762 -0.0288 -0.3123  0.5034
17427SOL    HW152459   7.610   5.520   8.694 -2.4867  1.1076 -0.2562
17427SOL    HW252460   7.469   5.445   8.729 -1.9374  1.7384  3.7934
17428SOL     OW52461   6.507   4.100   7.364  0.0961  0.3522 -0.4031
17428SOL    HW152462   6.531   4.005   7.347 -0.4306  0.2880 -0.7825
17428SOL    HW252463   6.552   4.158   7.295 -0.0063  0.3273 -0.4909
17429SOL     OW52464   0.548   0.538   8.821 -0.1935 -0.2459  0.0082
17429SOL    HW152465   0.490   0.568   8.897 -1.0446  1.5548 -1.3032
17429SOL    HW252466   0.546   0.606   8.748 -0.0872 -2.3123 -2.0356
17430SOL     OW52467   7.610   6.086   1.123 -0.2164  0.2314  0.0220
17430SOL    HW152468   7.524   6.104   1.075 -0.5607 -0.1147  0.4974
17430SOL    HW252469   7.590   6.043   1.211  0.4163  0.6556  0.3817
17431SOL     OW52470   2.446   7.108   7.396  0.3459 -0.1667  0.4657
17431SOL    HW152471   2.396   7.191   7.422  0.7020  0.0192  0.5660
17431SOL    HW252472   2.481   7.118   7.303  2.9357  1.0687  1.4420
17432SOL     OW52473   6.795   5.175   2.523 -1.0193  0.2932  0.0581
17432SOL    HW152474   6.713   5.130   2.558 -0.5934 -0.4719  0.0815
17432SOL    HW252475   6.820   5.250   2.584 -0.8247 -0.4440  0.9065
17433SOL     OW52476   2.161   8.313   3.883  0.5607  0.2177 -0.0259
17433SOL    HW152477   2.141   8.339   3.788  1.1352 -1.2605 -0.5817
17433SOL    HW252478   2.158   8.213   3.891 -0.0764  0.3394  1.6657
17434SOL     OW52479   3.401   0.803   7.547  0.1411 -0.3095  0.1730
17434SOL    HW152480   3.426   0.709   7.571  0.7160  0.4730  3.1038
17434SOL    HW252481   3.314   0.826   7.590 -0.8415  0.0230 -1.9138
17435SOL     OW52482   0.638   4.567   4.583  0.0205 -0.0952 -0.1308
17435SOL    HW152483   0.588   4.646   4.616 -0.6385 -0.8530  0.7398
17435SOL    HW252484   0.706   4.539   4.651 -0.4855 -0.9140  0.0532
17436SOL     OW52485   6.054   0.315   5.488 -0.7544  0.6540  1.0228
17436SOL    HW152486   6.144   0.285   5.519  0.3825  0.8389 -1.7923
17436SOL    HW252487   5.996   0.334   5.567  1.2189 -0.7224  2.9276
17437SOL     OW52488   7.519   8.829   0.930  0.3866 -0.3805 -0.3779
17437SOL    HW152489   7.436   8.878   0.903  0.9511  0.6401 -0.3221
17437SOL    HW252490   7.594   8.894   0.939  1.2324 -1.3136 -0.5686
17438SOL     OW52491   7.752   7.296   4.352  0.1327 -0.0099 -0.3324
17438SOL    HW152492   7.775   7.287   4.449  1.4061  0.6700 -0.5455
17438SOL    HW252493   7.657   7.268   4.337  0.0545 -0.5379  1.0319
17439SOL     OW52494   7.112   4.915   7.399 -0.3746  0.0889 -0.4420
17439SOL    HW152495   7.131   4.817   7.399  1.1717  0.3758 -0.9032
17439SOL    HW252496   7.096   4.946   7.306 -1.3274  0.2151 -0.2518
17440SOL     OW52497   7.800   8.062   8.229 -0.3294 -0.3289 -0.1059
17440SOL    HW152498   7.837   7.971   8.249  0.0160  0.2357  2.1761
17440SOL    HW252499   7.846   8.130   8.287 -2.4791  0.9162  0.2610
17441SOL     OW52500   6.237   8.015   1.125  0.2924 -0.0912  0.2313
17441SOL    HW152501   6.151   7.999   1.075  0.7825 -1.2226 -0.2981
17441SOL    HW252502   6.289   8.086   1.078  0.6727 -1.0262 -0.8159
17442SOL     OW52503   0.537   7.294   4.983 -0.2165  0.3957 -0.2417
17442SOL    HW152504   0.494   7.303   5.073  0.5233  2.0655 -0.0184
17442SOL    HW252505   0.467   7.294   4.912 -0.7866 -0.6445  0.2936
17443SOL     OW52506   5.783   8.082   6.261 -0.2511 -0.1994  0.2864
17443SOL    HW152507   5.725   8.005   6.285 -1.5227  1.4826  3.0167
17443SOL    HW252508   5.850   8.098   6.334  2.7537 -1.1018 -2.0589
17444SOL     OW52509   3.472   2.877   2.962 -0.2542  0.2556 -0.2728
17444SOL    HW152510   3.431   2.950   2.908 -0.8008  0.0744 -0.1046
17444SOL    HW252511   3.413   2.856   3.040  1.0746  1.3547  1.1087
17445SOL     OW52512   8.384   3.356   1.699 -0.2716 -0.3160 -0.0995
17445SOL    HW152513   8.443   3.304   1.638 -1.2055 -1.3942 -0.1243
17445SOL    HW252514   8.426   3.363   1.789  0.5804  0.2796 -0.5297
17446SOL     OW52515   7.488   4.773   4.195  0.1369  0.3182 -0.1386
17446SOL    HW152516   7.490   4.681   4.155  0.2600  0.6376 -0.8818
17446SOL    HW252517   7.573   4.790   4.244  0.3390  0.2349 -0.4604
17447SOL     OW52518   3.991   3.174   5.238  0.0664 -0.5546  0.2578
17447SOL    HW152519   3.958   3.215   5.323  0.7350 -0.1177  0.3154
17447SOL    HW252520   4.049   3.096   5.259 -0.6412 -1.1122  0.1662
17448SOL     OW52521   6.953   6.120   5.786  0.2456 -0.3143 -0.0686
17448SOL    HW152522   6.995   6.193   5.732 -1.9968  0.3327 -1.0376
17448SOL    HW252523   6.883   6.074   5.731 -2.3316  0.5179  2.3136
17449SOL     OW52524   1.539   8.813   6.285  0.4809  0.0948  0.1935
17449SOL    HW152525   1.570   8.825   6.191  2.4851 -0.3723  0.7427
17449SOL    HW252526   1.456   8.867   6.300 -0.3331 -0.4436 -2.0293
17450SOL     OW52527   2.484   1.353   5.349 -0.2150  0.0570 -0.2954
17450SOL    HW152528   2.496   1.451   5.367 -0.8116 -0.1089  1.1876
17450SOL    HW252529   2.562   1.302   5.385  0.7933  0.0855 -2.3572
17451SOL     OW52530   0.131   7.060   2.212  0.0273  0.0516 -0.5503
17451SOL    HW152531   0.190   7.137   2.239  0.6091 -0.5073 -0.2095
17451SOL    HW252532   0.149   6.981   2.271  3.4781 -2.2410 -4.1958
17452SOL     OW52533   2.716   7.692   8.792  0.4794  0.4715  0.4774
17452SOL    HW152534   2.775   7.729   8.721  1.3187  0.2463  1.0306
17452SOL    HW252535   2.742   7.732   8.880 -1.2750  1.5843  0.5145
17453SOL     OW52536   2.052   2.132   4.411 -0.0840 -0.2732 -0.4459
17453SOL    HW152537   2.119   2.064   4.381  1.1407  1.0985 -0.9323
17453SOL    HW252538   1.961   2.107   4.378  0.5813 -0.9116 -1.8711
17454SOL     OW52539   4.345   5.660   1.217 -0.5739  0.3034 -0.5209
17454SOL    HW152540   4.409   5.731   1.188  1.1020 -0.8566  0.2082
17454SOL    HW252541   4.257   5.675   1.172  0.6749  0.9644 -2.9143
17455SOL     OW52542   0.086   5.878   0.041 -0.9008  0.7483  0.0643
17455SOL    HW152543   0.152   5.905  -0.029 -0.2522 -3.3867 -1.2282
17455SOL    HW252544   0.126   5.887   0.132  0.0857  1.6131 -0.4431
17456SOL     OW52545   6.000   7.104   5.730 -0.2927  0.6274 -0.0450
17456SOL    HW152546   6.039   7.042   5.662 -0.6697  0.0412  0.2667
17456SOL    HW252547   6.070   7.128   5.797  0.1820  1.5018 -0.8388
17457SOL     OW52548   2.180   4.273   8.355 -0.2306  0.0243 -0.5252
17457SOL    HW152549   2.160   4.200   8.420 -0.6348 -1.2746 -2.0246
17457SOL    HW252550   2.260   4.247   8.300  0.3171  1.2478 -0.3529
17458SOL     OW52551   3.724   2.071   5.303 -0.2173  0.2510 -0.2780
17458SOL    HW152552   3.718   2.171   5.298 -1.1516  0.1720 -1.1055
17458SOL    HW252553   3.660   2.031   5.238  0.2169 -0.8957 -0.0190
17459SOL     OW52554   4.180   8.212   4.888  0.3177  1.2208 -0.2924
17459SOL    HW152555   4.175   8.232   4.986  0.6504  1.2841 -0.2886
17459SOL    HW252556   4.101   8.157   4.861  2.2556 -2.4930  0.8910
17460SOL     OW52557   8.370   2.397   6.949 -0.1123 -0.6914 -0.4145
17460SOL    HW152558   8.286   2.452   6.940  0.3174 -0.1055 -0.9455
17460SOL    HW252559   8.443   2.454   6.986 -0.2377 -1.5050  1.1536
17461SOL     OW52560   4.577   4.953   4.837  0.4756  0.2216  0.4250
17461SOL    HW152561   4.585   4.917   4.744  0.4578  0.7070  0.2338
17461SOL    HW252562   4.618   5.044   4.842  0.3055  0.2802  0.8434
17462SOL     OW52563   6.925   6.945   7.877  0.1687  0.5158 -0.4385
17462SOL    HW152564   6.849   6.991   7.831  0.8014  0.9567 -1.0613
17462SOL    HW252565   6.973   7.010   7.936 -0.1687  0.1399  0.2638
17463SOL     OW52566   7.907   5.558   8.739  0.0876  0.0081  0.3060
17463SOL    HW152567   7.880   5.652   8.758 -1.2686 -0.5142  1.0582
17463SOL    HW252568   7.932   5.512   8.824  0.6178 -0.3631 -0.0396
17464SOL     OW52569   1.072   0.323   0.733 -0.3800  0.1212  0.2828
17464SOL    HW152570   0.975   0.324   0.713 -0.5197  1.4350  0.9028
17464SOL    HW252571   1.118   0.396   0.682  0.0357  0.4050  1.0399
17465SOL     OW52572   2.286   1.614   5.741 -0.3119  0.1686 -0.4202
17465SOL    HW152573   2.257   1.704   5.709  0.4452  0.6557  0.2162
17465SOL    HW252574   2.355   1.625   5.813  0.1328 -0.9260 -0.6584
17466SOL     OW52575   3.964   4.410   8.549  0.2482 -0.0146 -0.1666
17466SOL    HW152576   4.058   4.382   8.531  0.5679  0.8928  0.0797
17466SOL    HW252577   3.904   4.330   8.539  1.1443 -0.8104  0.5564
17467SOL     OW52578   7.871   4.764   8.386 -0.5309  0.8851  0.5548
17467SOL    HW152579   7.866   4.862   8.366 -0.7194  1.1727  1.9588
17467SOL    HW252580   7.804   4.741   8.456 -1.2219 -0.4570 -0.5054
17468SOL     OW52581   2.532   3.359   0.091 -0.6797 -0.1560  0.7100
17468SOL    HW152582   2.528   3.341   0.189  0.0834 -0.1625  0.7467
17468SOL    HW252583   2.623   3.335   0.056 -0.5276  1.0284  0.2450
17469SOL     OW52584   2.748   6.513   0.478  0.0119 -0.4510 -0.2012
17469SOL    HW152585   2.655   6.489   0.450  0.0255 -0.3049 -0.3776
17469SOL    HW252586   2.813   6.449   0.436  0.0908  0.2023 -1.0954
17470SOL     OW52587   5.170   7.531   5.071 -0.1395  0.3221 -0.1321
17470SOL    HW152588   5.233   7.607   5.052  1.5054 -0.0357  3.1305
17470SOL    HW252589   5.124   7.548   5.158 -0.1931 -2.1319  0.3738
17471SOL     OW52590   6.524   6.985   4.632 -0.8674 -0.5347  0.2066
17471SOL    HW152591   6.547   6.904   4.579 -0.7487 -0.2474 -0.1882
17471SOL    HW252592   6.514   7.063   4.570  2.7063  0.6320  0.8583
17472SOL     OW52593   8.801   1.190   3.062 -0.0282  0.3081 -0.5184
17472SOL    HW152594   8.734   1.211   3.133  0.2356 -1.4195  0.2842
17472SOL    HW252595   8.761   1.127   2.995  0.2241  0.7145 -1.0632
17473SOL     OW52596   0.110   0.143   7.087  0.2782  0.3465 -0.5177
17473SOL    HW152597   0.184   0.179   7.031  1.4342  0.5390  1.0550
17473SOL    HW252598   0.115   0.044   7.089  0.8692  0.3821  0.0488
17474SOL     OW52599   0.242   2.376   6.694 -0.1733  0.2661  0.2933
17474SOL    HW152600   0.330   2.420   6.675 -0.8010  1.3896 -0.1304
17474SOL    HW252601   0.205   2.339   6.608 -1.1353  1.7878  0.0072
17475SOL     OW52602   2.176   0.722   5.387  0.0698 -0.0726 -0.1846
17475SOL    HW152603   2.114   0.652   5.421 -0.2497 -0.0501 -0.7102
17475SOL    HW252604   2.251   0.735   5.452  1.0065 -2.0327 -0.7833
17476SOL     OW52605   0.897   4.446   0.857 -0.8690 -0.5182 -0.2911
17476SOL    HW152606   0.808   4.403   0.842 -0.1808 -1.8040 -0.9100
17476SOL    HW252607   0.902   4.531   0.804 -1.4030 -0.9067 -0.9880
17477SOL     OW52608   4.077   8.363   6.595 -0.3443 -0.5821 -0.3650
17477SOL    HW152609   4.109   8.416   6.674 -0.4739 -0.7969 -0.1691
17477SOL    HW252610   4.038   8.277   6.626 -0.0428 -0.8386 -0.6917
17478SOL     OW52611   1.051   5.420   2.860  0.0162 -0.1463  0.4570
17478SOL    HW152612   1.108   5.350   2.904  3.4719  2.4095  0.5236
17478SOL    HW252613   0.989   5.459   2.928 -0.5938 -1.7807  0.8850
17479SOL     OW52614   0.380   1.379   7.731  0.6475 -0.6073  0.7663
17479SOL    HW152615   0.306   1.373   7.797 -1.0796  4.3577 -0.2723
17479SOL    HW252616   0.463   1.412   7.776  0.6632 -1.0155  1.0441
17480SOL     OW52617   7.825   8.168   5.655  0.2183 -0.1753  0.5072
17480SOL    HW152618   7.799   8.262   5.676  0.2960  0.1000 -0.5616
17480SOL    HW252619   7.773   8.105   5.713  0.3211  0.5325  1.3753
17481SOL     OW52620   5.199   4.743   1.353 -0.1573  0.3118  0.1548
17481SOL    HW152621   5.111   4.782   1.328 -0.1188 -0.2415 -0.9429
17481SOL    HW252622   5.264   4.816   1.374 -0.5227  0.7727 -0.3036
17482SOL     OW52623   3.386   4.013   2.102  0.0497  0.1491  0.3968
17482SOL    HW152624   3.369   3.919   2.131 -0.4840  0.1240  0.0031
17482SOL    HW252625   3.483   4.024   2.080 -0.4549 -1.3530 -3.2628
17483SOL     OW52626   6.784   3.531   7.013  0.4428  0.0621 -0.8337
17483SOL    HW152627   6.763   3.615   7.064  2.1926 -0.5236  0.9872
17483SOL    HW252628   6.849   3.552   6.940  2.2789  0.1079  0.7224
17484SOL     OW52629   2.207   6.930   4.307  0.0808 -0.8204  0.3890
17484SOL    HW152630   2.204   6.962   4.212  0.3908 -0.4801  0.4960
17484SOL    HW252631   2.292   6.958   4.350  0.4217 -1.8855  0.4535
17485SOL     OW52632   5.923   0.820   4.216  0.3824  0.0812 -0.0357
17485SOL    HW152633   5.963   0.877   4.144 -0.6270  0.9709  0.0848
17485SOL    HW252634   5.991   0.755   4.249  1.7731  1.6178  0.2375
17486SOL     OW52635   4.522   5.686   8.462  0.1728 -0.1590  0.5330
17486SOL    HW152636   4.454   5.617   8.436  1.5828 -1.2708 -0.4054
17486SOL    HW252637   4.561   5.726   8.379 -0.3983  1.5949  1.0695
17487SOL     OW52638   4.442   4.213   4.711  0.2217  0.6569  0.7556
17487SOL    HW152639   4.377   4.289   4.713 -1.8505 -1.0366  0.8494
17487SOL    HW252640   4.397   4.131   4.677  1.7938 -1.0437  2.4979
17488SOL     OW52641   8.695   7.092   6.519  0.2673 -0.4179  0.4404
17488SOL    HW152642   8.655   7.005   6.548  1.5310 -0.6120  1.6722
17488SOL    HW252643   8.789   7.099   6.551 -0.2521  2.0656  1.7114
17489SOL     OW52644   8.601   1.638   5.559 -0.0731  0.4593  0.1666
17489SOL    HW152645   8.633   1.733   5.566  0.6978  0.3463 -1.4645
17489SOL    HW252646   8.541   1.618   5.637  1.3477  1.6347  1.6472
17490SOL     OW52647   1.836   4.808   4.372 -0.6491  0.1095  0.3751
17490SOL    HW152648   1.925   4.848   4.351 -0.4489 -0.2554  0.5150
17490SOL    HW252649   1.790   4.782   4.288 -0.4876  0.0068  0.3196
17491SOL     OW52650   2.964   4.826   8.381 -0.4205 -0.1923  0.0727
17491SOL    HW152651   3.018   4.761   8.329 -1.3515 -0.8915 -0.0526
17491SOL    HW252652   2.890   4.778   8.429 -0.8747  0.7164  0.3177
17492SOL     OW52653   4.260   1.518   7.893  0.0514  0.5969 -0.2110
17492SOL    HW152654   4.189   1.517   7.963  0.3614 -0.7023  0.1154
17492SOL    HW252655   4.223   1.558   7.809 -1.2453 -0.5028 -0.2076
17493SOL     OW52656   1.307   2.378   0.192 -0.0998  0.2228 -0.3657
17493SOL    HW152657   1.324   2.283   0.167 -1.3061  0.0922 -0.7284
17493SOL    HW252658   1.283   2.430   0.110  0.5003  0.8377 -0.1599
17494SOL     OW52659   4.490   5.080   5.205 -0.0035 -0.3784 -0.0597
17494SOL    HW152660   4.491   5.012   5.279  1.2769 -2.0556 -1.5159
17494SOL    HW252661   4.570   5.139   5.214 -0.5646  0.2972  0.6223
17495SOL     OW52662   7.057   6.967   5.765 -0.3032 -0.3545 -0.5371
17495SOL    HW152663   7.064   7.035   5.838 -2.2423 -2.2864  1.6133
17495SOL    HW252664   7.129   6.898   5.777  1.9103  1.3267 -2.9407
17496SOL     OW52665   1.788   7.316   4.205  0.3763 -0.1626  0.8565
17496SOL    HW152666   1.790   7.376   4.125 -0.8147 -1.6099 -0.3170
17496SOL    HW252667   1.879   7.278   4.221 -0.0237 -2.7375 -2.1506
17497SOL     OW52668   8.213   4.448   4.445 -0.3745  0.7105  0.5958
17497SOL    HW152669   8.160   4.365   4.426  0.8014  0.2746 -0.9626
17497SOL    HW252670   8.163   4.528   4.411 -1.8635  0.7971  2.7672
17498SOL     OW52671   2.657   5.600   3.036  0.4388 -0.1083 -0.2997
17498SOL    HW152672   2.671   5.653   3.120  0.1843 -0.0174 -0.3150
17498SOL    HW252673   2.734   5.616   2.974  1.9536 -2.1424  0.9269
17499SOL     OW52674   6.089   5.790   1.878 -0.1168 -0.2739  0.2452
17499SOL    HW152675   6.002   5.834   1.901 -0.7556 -0.7097 -1.1911
17499SOL    HW252676   6.072   5.715   1.813  1.4280  0.2614 -0.8255
17500SOL     OW52677   0.040   1.355   1.096 -0.4765 -0.4477 -0.3406
17500SOL    HW152678  -0.018   1.325   1.021 -4.0921  1.2087  1.5451
17500SOL    HW252679   0.070   1.449   1.079 -0.1593 -0.5441 -0.3183
17501SOL     OW52680   3.624   6.363   2.579 -0.0294 -0.0904  0.2332
17501SOL    HW152681   3.540   6.325   2.617  0.6728 -0.9412  0.9878
17501SOL    HW252682   3.610   6.387   2.483 -0.9333 -0.8726  0.1603
17502SOL     OW52683   3.294   0.036   6.772  0.6918  0.4546  0.0941
17502SOL    HW152684   3.207   0.035   6.721  0.4725  0.5349  0.4645
17502SOL    HW252685   3.312   0.129   6.805  1.1644  0.5400 -0.3964
17503SOL     OW52686   1.476   2.471   7.818 -0.4242 -0.1529 -0.0613
17503SOL    HW152687   1.480   2.375   7.788  1.7018 -0.5308  1.1791
17503SOL    HW252688   1.410   2.480   7.892  0.4678 -1.0310  0.8736
17504SOL     OW52689   6.039   3.286   6.941  0.2348 -0.0100 -0.0809
17504SOL    HW152690   5.990   3.309   6.857  0.7809  1.2856 -0.0557
17504SOL    HW252691   6.058   3.188   6.942 -0.0064 -0.0804 -1.3374
17505SOL     OW52692   7.301   0.029   6.790  0.2832 -0.5877 -0.3066
17505SOL    HW152693   7.357   0.100   6.832 -0.8736 -0.3173  0.8637
17505SOL    HW252694   7.254   0.067   6.710  0.1989 -0.2266 -0.0892
17506SOL     OW52695   1.265   6.354   1.442  0.3064  0.4041 -0.0688
17506SOL    HW152696   1.268   6.323   1.347 -0.4449 -0.9952  0.3362
17506SOL    HW252697   1.358   6.362   1.477  0.5705  0.3525 -0.7452
17507SOL     OW52698   8.670   2.891   4.682 -0.0584 -0.3361  0.8521
17507SOL    HW152699   8.688   2.904   4.779 -1.2440  1.7201  0.8506
17507SOL    HW252700   8.753   2.910   4.630 -0.1877  1.6548  1.3011
17508SOL     OW52701   6.722   2.147   3.356  0.1836  0.0866 -0.1899
17508SOL    HW152702   6.745   2.070   3.416 -1.0428 -1.0520 -1.1285
17508SOL    HW252703   6.634   2.130   3.311  0.3148  1.6333 -1.1243
17509SOL     OW52704   2.325   4.253   0.812  0.1112 -0.0505  0.8345
17509SOL    HW152705   2.391   4.249   0.887  0.3943  0.9869  0.6610
17509SOL    HW252706   2.362   4.205   0.732 -0.8044 -2.4622  1.7554
17510SOL     OW52707   3.505   3.788   0.952  0.0967 -0.3351 -0.3525
17510SOL    HW152708   3.425   3.834   0.912  0.7918  0.2391 -1.1315
17510SOL    HW252709   3.536   3.840   1.032 -0.8529 -1.0782  0.5308
17511SOL     OW52710   0.709   3.242   8.119  0.5195  0.5536 -0.1123
17511SOL    HW152711   0.703   3.190   8.204  0.4634  0.0139 -0.4397
17511SOL    HW252712   0.647   3.201   8.051 -0.7592  2.0216  0.1224
17512SOL     OW52713   5.489   1.224   5.705 -0.0021 -0.1670 -0.1237
17512SOL    HW152714   5.526   1.313   5.678  0.3641 -0.3623 -0.2764
17512SOL    HW252715   5.434   1.234   5.787 -0.2288  0.2551 -0.3272
17513SOL     OW52716   2.469   6.936   1.625 -0.0601  0.3120  0.1314
17513SOL    HW152717   2.543   6.992   1.663  1.0422 -1.7343  1.1228
17513SOL    HW252718   2.507   6.876   1.554 -0.7949 -0.5778  0.4760
17514SOL     OW52719   4.969   0.024   6.577 -0.1572  0.2823  0.1977
17514SOL    HW152720   4.901   0.089   6.543 -2.0197 -1.4864  0.3515
17514SOL    HW252721   5.003   0.053   6.666 -0.0508  1.6135 -0.2525
17515SOL     OW52722   0.277   0.220   0.457  0.6288  0.5761 -0.3992
17515SOL    HW152723   0.344   0.217   0.382  0.7000 -2.4240 -0.3563
17515SOL    HW252724   0.324   0.241   0.543  1.5091 -0.9964 -0.4545
17516SOL     OW52725   8.285   6.405   8.029 -0.1408 -0.2599  0.8370
17516SOL    HW152726   8.189   6.435   8.029  0.4936  2.1001 -1.3232
17516SOL    HW252727   8.316   6.393   7.934  2.0912  0.4466  1.4180
17517SOL     OW52728   1.144   5.271   3.533 -0.4969 -0.4370 -0.0887
17517SOL    HW152729   1.083   5.325   3.475 -0.3271 -0.1288  0.0188
17517SOL    HW252730   1.143   5.308   3.626 -1.4596 -1.4664  0.3376
17518SOL     OW52731   1.715   7.859   4.228  0.3137  0.4005 -0.0436
17518SOL    HW152732   1.814   7.866   4.226  0.2834  1.0196  0.3949
17518SOL    HW252733   1.678   7.921   4.297 -0.2953 -0.7652  0.7154
17519SOL     OW52734   2.123   4.146   1.725 -0.0295  0.3800 -0.1587
17519SOL    HW152735   2.134   4.052   1.691 -1.0716  0.0460  0.3718
17519SOL    HW252736   2.208   4.176   1.767  1.0923  0.5630 -2.3901
17520SOL     OW52737   7.258   6.206   7.923  0.1356 -0.0782  0.2812
17520SOL    HW152738   7.188   6.175   7.988  1.2820 -1.2229  1.0174
17520SOL    HW252739   7.246   6.159   7.836 -1.2308  1.2487 -0.2910
17521SOL     OW52740   5.891   4.246   1.821  0.0237 -0.1691 -0.4881
17521SOL    HW152741   5.825   4.307   1.864  1.7753  0.7642  1.0218
17521SOL    HW252742   5.869   4.236   1.724 -2.7623 -0.5632  0.1177
17522SOL     OW52743   4.692   7.433   4.114  0.1640  0.2150  0.3860
17522SOL    HW152744   4.621   7.363   4.127  1.3886 -1.2572 -0.4373
17522SOL    HW252745   4.726   7.463   4.203 -0.6852  0.0835  0.7647
17523SOL     OW52746   7.296   1.905   6.828 -0.5812 -1.0785 -0.0248
17523SOL    HW152747   7.310   1.999   6.797 -0.6855 -1.3271 -0.8527
17523SOL    HW252748   7.344   1.891   6.914  0.5441 -0.6354 -0.5600
17524SOL     OW52749   7.163   0.186   4.545  0.3787 -0.1562  0.1082
17524SOL    HW152750   7.090   0.129   4.506  0.3113 -0.9713  1.3784
17524SOL    HW252751   7.250   0.163   4.501  0.1893 -0.5348 -0.0739
17525SOL     OW52752   3.094   0.739   2.523  0.3840  0.1356  0.0497
17525SOL    HW152753   3.077   0.804   2.449  0.7044 -0.0201 -0.1631
17525SOL    HW252754   3.193   0.724   2.533  0.2695 -1.4441 -0.8930
17526SOL     OW52755   2.368   2.487   4.116 -0.0688 -0.1612  0.2001
17526SOL    HW152756   2.318   2.548   4.177  0.1757  0.7886 -0.5157
17526SOL    HW252757   2.350   2.513   4.021  1.3500 -0.1123 -0.0892
17527SOL     OW52758   8.223   5.919   6.816 -0.8724  0.0969 -0.0226
17527SOL    HW152759   8.133   5.927   6.773 -0.1190  0.6445 -1.5556
17527SOL    HW252760   8.262   5.829   6.797 -0.0960  0.7089 -1.4137
17528SOL     OW52761   2.702   8.524   3.970  0.2084 -0.4299  0.1747
17528SOL    HW152762   2.652   8.455   3.919 -3.0833  1.6145  0.3542
17528SOL    HW252763   2.738   8.593   3.907 -1.7097  0.7658  0.2948
17529SOL     OW52764   8.300   6.233   6.861 -0.2049 -0.3543 -0.1992
17529SOL    HW152765   8.283   6.277   6.772 -3.8295  0.6792  0.8234
17529SOL    HW252766   8.290   6.134   6.851 -3.0942 -0.1183 -0.6552
17530SOL     OW52767   5.945   8.009   6.902  0.6299 -0.4755  0.2962
17530SOL    HW152768   6.002   7.989   6.823  0.2721  0.3674 -0.1821
17530SOL    HW252769   5.863   7.951   6.900 -1.0362  1.7359 -1.7644
17531SOL     OW52770   4.626   6.525   4.492 -0.0354  0.6830 -0.5032
17531SOL    HW152771   4.546   6.556   4.542  0.3195  1.0637 -0.1675
17531SOL    HW252772   4.637   6.426   4.505  0.0114  0.7657  0.1162
17532SOL     OW52773   4.004   6.521   1.547 -0.3630  0.2228  0.2029
17532SOL    HW152774   3.929   6.488   1.605  1.6905  0.6453  3.2925
17532SOL    HW252775   4.027   6.615   1.571 -0.4171  1.0174 -2.4773
17533SOL     OW52776   0.299   4.124   1.553 -0.1600 -0.5609 -0.2460
17533SOL    HW152777   0.338   4.193   1.613 -0.4432  0.4337 -1.1619
17533SOL    HW252778   0.237   4.168   1.488 -1.3243 -1.8502 -0.0577
17534SOL     OW52779   6.106   5.928   0.269 -0.1670  0.7917 -0.4830
17534SOL    HW152780   6.128   5.857   0.202 -0.1056  1.1768 -0.8783
17534SOL    HW252781   6.023   5.976   0.241 -1.4548 -0.5142  0.8919
17535SOL     OW52782   5.168   5.193   2.296 -0.0798 -0.3376 -0.0182
17535SOL    HW152783   5.207   5.151   2.214 -1.2405 -0.5868 -0.4611
17535SOL    HW252784   5.230   5.180   2.373  0.7569 -0.6086 -0.7226
17536SOL     OW52785   6.579   4.824   8.301  0.5088  0.0899  0.0496
17536SOL    HW152786   6.587   4.923   8.295 -0.7448  0.3040  1.2465
17536SOL    HW252787   6.658   4.787   8.351  1.0617  0.4550 -0.5435
17537SOL     OW52788   2.892   5.052   7.905  0.4314 -0.3105 -0.1145
17537SOL    HW152789   2.800   5.079   7.877  0.0357 -0.2979  1.1323
17537SOL    HW252790   2.932   5.124   7.962  0.9204 -0.6470 -0.0258
17538SOL     OW52791   7.499   8.116   0.293  0.1554 -0.1761  0.2558
17538SOL    HW152792   7.407   8.151   0.273 -0.0831 -0.9924 -0.1505
17538SOL    HW252793   7.557   8.190   0.326 -1.0491  0.0780  1.9138
17539SOL     OW52794   0.764   5.566   8.846 -0.1269 -0.7622  0.1089
17539SOL    HW152795   0.798   5.595   8.935 -2.4614  2.3331  0.1729
17539SOL    HW252796   0.708   5.484   8.857 -1.2489  0.1483  1.7905
17540SOL     OW52797   7.888   1.467   4.476 -0.2631  0.5479  0.2614
17540SOL    HW152798   7.966   1.420   4.435 -0.4023  0.7481 -0.2434
17540SOL    HW252799   7.808   1.407   4.476 -0.1910  0.4508  0.4965
17541SOL     OW52800   0.281   0.656   6.064  0.0992  0.2344 -0.1419
17541SOL    HW152801   0.218   0.654   5.987 -0.2415 -1.0155  0.1326
17541SOL    HW252802   0.234   0.624   6.146  0.5403  1.2490  0.5182
17542SOL     OW52803   3.525   4.694   5.261 -0.3222 -0.0043 -0.3355
17542SOL    HW152804   3.512   4.767   5.328  0.2227 -0.9108  0.8107
17542SOL    HW252805   3.623   4.674   5.253 -0.3258  0.5228 -1.9100
17543SOL     OW52806   0.178   3.121   2.106 -0.0693  0.6287  0.0130
17543SOL    HW152807   0.115   3.102   2.031  0.7977 -2.8371 -0.0275
17543SOL    HW252808   0.266   3.151   2.069 -0.1714  0.5666 -0.2786
17544SOL     OW52809   3.743   6.158   6.888 -0.0191 -0.8124 -0.0953
17544SOL    HW152810   3.790   6.069   6.880  0.9515 -0.6726  2.7142
17544SOL    HW252811   3.806   6.231   6.860  0.5475 -0.7993  1.1588
17545SOL     OW52812   7.867   6.772   8.570 -0.3258 -0.0950  0.0737
17545SOL    HW152813   7.862   6.676   8.598  1.5635 -0.0294  0.7717
17545SOL    HW252814   7.870   6.830   8.652 -0.7875  0.5247 -0.3382
17546SOL     OW52815   5.080   4.301   3.579 -0.3276 -0.2308 -0.2065
17546SOL    HW152816   5.042   4.209   3.592  1.4243 -0.9035  0.5972
17546SOL    HW252817   5.152   4.316   3.647 -0.0297  1.4417 -0.8520
17547SOL     OW52818   8.641   8.811   8.585  0.0762  0.0741  0.0485
17547SOL    HW152819   8.629   8.910   8.579  1.3592  0.1865 -2.7407
17547SOL    HW252820   8.735   8.790   8.613 -0.7640 -0.4479  2.6952
17548SOL     OW52821   5.593   2.926   3.314 -0.8443  0.2401  0.4569
17548SOL    HW152822   5.624   2.831   3.326 -2.0626 -0.0568  1.4426
17548SOL    HW252823   5.571   2.965   3.403 -1.2947  1.1295 -0.0363
17549SOL     OW52824   7.878   2.326   6.614  0.5507 -0.6302  0.7981
17549SOL    HW152825   7.901   2.237   6.654  0.2306 -0.9537  0.2845
17549SOL    HW252826   7.944   2.348   6.542 -0.2924 -1.2469 -0.2171
17550SOL     OW52827   3.753   4.056   4.602  0.0012  0.5386 -0.6278
17550SOL    HW152828   3.770   4.048   4.504 -0.2505  0.3146 -0.6550
17550SOL    HW252829   3.664   4.015   4.623  0.3782 -0.0741 -0.1994
17551SOL     OW52830   7.351   4.845   6.879  0.5877 -0.0087 -0.6538
17551SOL    HW152831   7.275   4.853   6.815  0.6009 -1.4114 -0.8897
17551SOL    HW252832   7.411   4.924   6.870 -0.4038  0.7203 -1.0397
17552SOL     OW52833   7.529   0.649   7.120  0.0153 -0.1571  0.2682
17552SOL    HW152834   7.540   0.705   7.202  1.8081 -1.5110  0.9942
17552SOL    HW252835   7.496   0.707   7.045 -0.6285  1.3189  1.6251
17553SOL     OW52836   3.891   3.090   7.577 -0.4936  0.5225  0.8275
17553SOL    HW152837   3.973   3.059   7.625 -0.0279  0.5894  0.0755
17553SOL    HW252838   3.907   3.091   7.479 -0.8288  2.1701  0.7543
17554SOL     OW52839   2.602   2.895   3.089 -0.1569 -0.2345 -0.6603
17554SOL    HW152840   2.651   2.947   3.018  1.6471 -1.3537 -0.3105
17554SOL    HW252841   2.600   2.949   3.173 -0.9210  0.4595 -1.1107
17555SOL     OW52842   6.556   3.031   8.067  0.4243 -0.1783  0.4228
17555SOL    HW152843   6.551   2.976   8.151 -1.7550  0.0900  0.5288
17555SOL    HW252844   6.502   3.114   8.078 -0.9781 -0.7407 -1.6427
17556SOL     OW52845   0.361   5.064   1.853 -0.5449  0.3999  0.2728
17556SOL    HW152846   0.432   5.126   1.821 -1.3278  0.3829 -1.6665
17556SOL    HW252847   0.285   5.117   1.892 -0.6549  0.5993 -0.2043
17557SOL     OW52848   0.555   6.551   4.626 -0.0477  0.0982  0.0328
17557SOL    HW152849   0.504   6.594   4.700  0.7350 -0.2659  0.8021
17557SOL    HW252850   0.532   6.594   4.539 -0.5359  0.9266  0.5670
17558SOL     OW52851   8.537   7.236   6.695  0.0872  0.7026  0.1879
17558SOL    HW152852   8.487   7.191   6.769  0.9641  2.3446  1.8580
17558SOL    HW252853   8.582   7.168   6.639  0.0006 -0.5821  1.6195
17559SOL     OW52854   7.596   7.335   7.940 -0.0339  0.2471  0.2614
17559SOL    HW152855   7.681   7.341   7.993 -1.6929 -0.0140  3.1451
17559SOL    HW252856   7.520   7.371   7.995 -2.4260 -2.9488 -0.6425
17560SOL     OW52857   5.305   0.211   7.176 -0.4108  0.2472  0.2201
17560SOL    HW152858   5.360   0.178   7.099 -1.8959 -0.7298 -0.4809
17560SOL    HW252859   5.242   0.282   7.144 -0.1784  0.7382  0.8221
17561SOL     OW52860   8.793   2.544   6.407  0.2765 -0.0582 -0.1311
17561SOL    HW152861   8.732   2.552   6.486 -0.2832  1.3331 -0.6865
17561SOL    HW252862   8.745   2.572   6.324  1.6194  0.9119 -0.6130
17562SOL     OW52863   6.600   2.713   4.788  0.0452 -0.3263 -0.2934
17562SOL    HW152864   6.695   2.734   4.764  0.0257 -0.0157 -0.1035
17562SOL    HW252865   6.542   2.731   4.708  0.3156 -1.8759 -0.8722
17563SOL     OW52866   1.222   2.438   4.909  0.5835  0.1762  0.3015
17563SOL    HW152867   1.150   2.509   4.910  0.2409 -0.0857 -1.6602
17563SOL    HW252868   1.255   2.423   5.002 -1.0621  1.1674  1.0937
17564SOL     OW52869   2.667   0.430   8.248 -0.1734 -0.7151 -0.7631
17564SOL    HW152870   2.687   0.409   8.344  1.3344 -1.1950 -1.1702
17564SOL    HW252871   2.733   0.496   8.213 -1.5683  0.5781 -1.0976
17565SOL     OW52872   0.584   0.262   8.076 -0.5892 -0.5231  0.0983
17565SOL    HW152873   0.531   0.185   8.112 -0.8345 -0.3402  0.1302
17565SOL    HW252874   0.529   0.345   8.079 -0.2782 -0.3177  0.1887
17566SOL     OW52875   7.121   0.928   2.811 -0.1397 -0.4783 -0.2366
17566SOL    HW152876   7.127   0.979   2.725 -1.7998  0.2516  0.0395
17566SOL    HW252877   7.030   0.942   2.851  0.1377 -1.8991  0.9590
17567SOL     OW52878   5.318   4.705   1.741  0.1840 -0.1049  0.0390
17567SOL    HW152879   5.377   4.700   1.661  1.6769  1.4746  0.9621
17567SOL    HW252880   5.240   4.644   1.729  0.3852  0.0379 -2.5486
17568SOL     OW52881   4.291   1.183   0.156  0.2411  0.7266  0.6441
17568SOL    HW152882   4.223   1.256   0.151 -0.6277 -0.1160 -0.4553
17568SOL    HW252883   4.348   1.195   0.237  0.1092  2.5999  0.4898
17569SOL     OW52884   2.649   1.080   7.634 -0.1088  0.7470  0.2626
17569SOL    HW152885   2.638   1.093   7.536 -0.6877 -2.7262 -0.2561
17569SOL    HW252886   2.559   1.075   7.678  0.1385  1.8328  0.9468
17570SOL     OW52887   2.736   0.151   0.975  0.8127  0.2310  0.2658
17570SOL    HW152888   2.651   0.132   0.925  1.5925  0.3395 -1.1721
17570SOL    HW252889   2.726   0.123   1.070 -0.3952 -0.9826 -0.1854
17571SOL     OW52890   5.711   8.780   1.828  0.3285  0.4775  0.1045
17571SOL    HW152891   5.677   8.822   1.744  0.6032 -0.6001 -0.5610
17571SOL    HW252892   5.784   8.836   1.866 -0.4965  1.5185  0.2107
17572SOL     OW52893   1.871   0.984   3.205 -0.3786  0.1612  0.3917
17572SOL    HW152894   1.933   1.027   3.139  1.1743 -1.4219  0.7350
17572SOL    HW252895   1.924   0.950   3.282 -1.3616 -3.0610 -0.2260
17573SOL     OW52896   2.394   1.373   1.603  0.4433 -0.5302  0.3270
17573SOL    HW152897   2.327   1.429   1.554  1.7195 -1.0358 -2.1746
17573SOL    HW252898   2.475   1.428   1.623  1.0379 -1.0079 -0.6694
17574SOL     OW52899   2.688   4.803   8.113 -0.1391  0.5917  0.5311
17574SOL    HW152900   2.678   4.892   8.158  0.8169  0.8141  0.3278
17574SOL    HW252901   2.785   4.787   8.091 -0.5054  0.2505 -0.9561
17575SOL     OW52902   0.357   0.871   1.110 -0.4862  0.2804  0.0655
17575SOL    HW152903   0.299   0.802   1.067 -0.1828  0.0921 -0.0458
17575SOL    HW252904   0.324   0.962   1.086  0.5073  0.1975 -1.7368
17576SOL     OW52905   7.332   3.041   1.550  0.0093 -0.4922 -0.6200
17576SOL    HW152906   7.256   3.060   1.488 -0.6823 -0.7416  0.1335
17576SOL    HW252907   7.377   2.956   1.522 -0.8608 -1.0856 -0.2727
17577SOL     OW52908   1.070   1.726   8.545  0.3410  0.0308  0.5423
17577SOL    HW152909   1.148   1.689   8.595  0.2023 -0.0470  0.7037
17577SOL    HW252910   0.988   1.672   8.566 -0.0015  0.8114  1.2938
17578SOL     OW52911   4.940   1.861   5.587 -0.1036 -0.2401 -0.9840
17578SOL    HW152912   4.852   1.833   5.549 -0.6463  1.8688 -1.3821
17578SOL    HW252913   5.006   1.874   5.513 -0.2943  0.9710 -0.9482
17579SOL     OW52914   0.064   4.915   2.091 -0.0718 -0.1909 -0.1216
17579SOL    HW152915   0.120   4.991   2.056  0.5569  0.1648  1.5600
17579SOL    HW252916  -0.032   4.933   2.069  0.1859  0.4966 -0.7743
17580SOL     OW52917   1.608   6.874   6.434  0.3506 -0.0055 -0.1134
17580SOL    HW152918   1.646   6.949   6.488 -1.3802  0.6037  0.3169
17580SOL    HW252919   1.680   6.834   6.378  1.0773  2.8753 -1.4155
17581SOL     OW52920   2.048   8.619   5.197  0.3867  0.0987 -0.0218
17581SOL    HW152921   1.998   8.536   5.222 -0.3937  0.2399 -1.0336
17581SOL    HW252922   2.077   8.612   5.101  0.6809  0.8155  0.0126
17582SOL     OW52923   3.412   4.352   5.594  0.3980  0.4519 -0.1600
17582SOL    HW152924   3.488   4.288   5.588 -1.4275 -1.6950 -1.9501
17582SOL    HW252925   3.332   4.306   5.632 -0.2193  2.5024  1.1861
17583SOL     OW52926   0.563   5.965   4.054  0.5245  0.3250 -0.1606
17583SOL    HW152927   0.483   6.024   4.066  0.2806  0.0964 -0.6442
17583SOL    HW252928   0.534   5.873   4.028  0.8649 -0.2537  1.3927
17584SOL     OW52929   3.755   8.059   5.546 -0.0282 -0.0793  0.0056
17584SOL    HW152930   3.708   8.070   5.458  1.4100 -0.9637 -0.9057
17584SOL    HW252931   3.726   8.131   5.608 -1.1877  0.4838 -1.1356
17585SOL     OW52932   4.604   8.000   2.219 -0.0214 -0.2733  0.7950
17585SOL    HW152933   4.592   7.904   2.195  0.2686 -0.0948 -0.0892
17585SOL    HW252934   4.518   8.036   2.256 -0.4570 -0.5885  0.1057
17586SOL     OW52935   0.908   8.063   2.946  0.4214 -0.1479 -0.1053
17586SOL    HW152936   0.882   7.968   2.963 -3.0919  0.8243  0.7104
17586SOL    HW252937   0.881   8.120   3.023  2.2596  1.6007 -0.6525
17587SOL     OW52938   4.754   6.399   7.246  0.2214 -0.0849 -0.3064
17587SOL    HW152939   4.712   6.335   7.182  2.5950 -0.1022 -1.9657
17587SOL    HW252940   4.766   6.355   7.335 -2.0063 -0.4665 -0.1333
17588SOL     OW52941   7.816   7.681   4.585  0.0705 -0.2676 -0.2847
17588SOL    HW152942   7.719   7.703   4.582 -0.0921 -0.6259  1.3505
17588SOL    HW252943   7.868   7.761   4.616  0.3702  0.0753 -1.6301
17589SOL     OW52944   3.193   8.653   1.546 -0.6614 -0.0215 -0.1759
17589SOL    HW152945   3.128   8.579   1.527 -0.8831  0.1130  0.0431
17589SOL    HW252946   3.266   8.652   1.478 -0.5996 -0.5178 -0.1042
17590SOL     OW52947   7.887   8.320   3.588  0.2487 -0.2084  0.3981
17590SOL    HW152948   7.904   8.306   3.491 -0.5088 -1.5796  0.4477
17590SOL    HW252949   7.897   8.234   3.637 -0.3317  0.2676  1.3928
17591SOL     OW52950   0.442   2.979   1.432  0.1538 -0.4254  0.1324
17591SOL    HW152951   0.484   2.929   1.356  1.6354  0.9182  0.0118
17591SOL    HW252952   0.511   2.997   1.502 -0.8789 -0.4542  1.1981
17592SOL     OW52953   4.748   0.558   7.940  0.3830 -0.0752  0.2177
17592SOL    HW152954   4.796   0.500   7.873 -0.7215 -0.9836  0.1793
17592SOL    HW252955   4.689   0.622   7.892  0.2747 -0.1123  0.3015
17593SOL     OW52956   5.017   4.420   1.139  0.0541 -0.3497  0.0945
17593SOL    HW152957   5.089   4.473   1.093 -0.7093 -0.9858 -1.9587
17593SOL    HW252958   4.956   4.482   1.188 -0.6723  0.7201 -2.0326
17594SOL     OW52959   6.238   1.582   4.461 -0.6109 -0.1781  0.0262
17594SOL    HW152960   6.318   1.553   4.514 -0.0146 -0.4870 -1.0191
17594SOL    HW252961   6.231   1.681   4.464  0.5167 -0.0584 -0.8514
17595SOL     OW52962   3.849   2.645   8.588  0.4286 -0.4172  0.4738
17595SOL    HW152963   3.875   2.549   8.579 -0.5443 -0.6254 -0.1804
17595SOL    HW252964   3.925   2.703   8.560 -0.1328 -1.0142 -2.5670
17596SOL     OW52965   3.686   8.579   7.115  0.0599  0.4535  0.9346
17596SOL    HW152966   3.603   8.524   7.116  0.1959  0.2481  1.2032
17596SOL    HW252967   3.765   8.520   7.129  0.2653  0.6269  0.5072
17597SOL     OW52968   4.029   6.793   6.644 -0.1336 -0.1052  0.5173
17597SOL    HW152969   4.039   6.880   6.692  0.9803  0.8247 -1.2695
17597SOL    HW252970   3.933   6.777   6.623 -0.3692  0.5800  1.0532
17598SOL     OW52971   5.945   1.485   0.016 -0.3496  0.0033 -0.1723
17598SOL    HW152972   5.916   1.427   0.092  0.0333 -0.2887 -0.2453
17598SOL    HW252973   5.916   1.444  -0.070 -0.7051  0.2888 -0.1921
17599SOL     OW52974   0.414   8.767   3.568  0.2259  0.7408  0.0566
17599SOL    HW152975   0.394   8.865   3.569  0.6480  1.0992 -4.4357
17599SOL    HW252976   0.328   8.716   3.561  0.1034  0.9522  0.0102
17600SOL     OW52977   3.083   3.885   8.028 -0.1998  0.1989 -0.1831
17600SOL    HW152978   3.043   3.944   8.098  2.9888  0.4056  1.6502
17600SOL    HW252979   3.103   3.939   7.946 -0.1987  0.9473  0.3027
17601SOL     OW52980   0.489   1.856   8.035 -0.3228 -0.4232 -0.0714
17601SOL    HW152981   0.579   1.823   8.008 -0.0899 -1.1077  1.4449
17601SOL    HW252982   0.432   1.867   7.954  1.7713  2.1593 -1.3270
17602SOL     OW52983   5.337   2.541   6.606 -0.3833  0.6415 -0.5944
17602SOL    HW152984   5.242   2.567   6.588 -0.3546  0.3138 -1.2460
17602SOL    HW252985   5.383   2.616   6.653 -0.7578  1.1156 -0.9682
17603SOL     OW52986   3.733   0.123   5.310  0.1990 -0.3073  0.2444
17603SOL    HW152987   3.760   0.217   5.329 -0.2461  0.3045 -1.9320
17603SOL    HW252988   3.813   0.063   5.316  0.8564  0.5107 -0.2326
17604SOL     OW52989   5.195   3.124   2.258 -0.6607 -0.8791  0.0120
17604SOL    HW152990   5.271   3.185   2.281 -0.7654 -1.2967  1.5878
17604SOL    HW252991   5.230   3.044   2.208 -0.1305 -0.8588  0.3507
17605SOL     OW52992   1.580   1.863   6.356  0.0401  0.4819 -0.2219
17605SOL    HW152993   1.620   1.914   6.281  0.6085  0.8078  0.2933
17605SOL    HW252994   1.481   1.858   6.344  0.0874  0.8396 -0.7980
17606SOL     OW52995   6.679   1.127   6.117 -0.1576 -0.0389 -0.5186
17606SOL    HW152996   6.762   1.183   6.116  0.4931 -0.9605  0.2236
17606SOL    HW252997   6.599   1.186   6.105  0.4735  1.1052  0.6551
17607SOL     OW52998   8.501   6.873   1.976  0.0656 -0.1503 -0.4361
17607SOL    HW152999   8.488   6.876   1.877 -0.5957  0.6681 -0.3408
17607SOL    HW253000   8.419   6.910   2.021  0.0502 -1.2023  0.4422
17608SOL     OW53001   8.539   1.215   2.737 -0.0856  0.3305  0.2243
17608SOL    HW153002   8.596   1.145   2.695 -0.6861 -0.3457  0.5183
17608SOL    HW253003   8.582   1.247   2.822  0.7475  1.1482 -0.4933
17609SOL     OW53004   7.944   2.580   7.960 -0.0241  0.0703 -0.1540
17609SOL    HW153005   7.987   2.670   7.959 -0.1730  0.1380 -0.3940
17609SOL    HW253006   7.957   2.538   8.050  1.6087 -0.4146 -0.5768
17610SOL     OW53007   5.277   1.269   7.472 -0.6196 -0.0502 -0.0738
17610SOL    HW153008   5.344   1.341   7.456 -0.7165 -0.0773 -0.6169
17610SOL    HW253009   5.296   1.192   7.412 -0.9373 -0.1935  0.0058
17611SOL     OW53010   6.443   8.343   6.654  0.0918 -0.0031  0.4220
17611SOL    HW153011   6.374   8.414   6.638  0.3808 -0.0107 -1.0112
17611SOL    HW253012   6.533   8.386   6.660  0.1668 -0.1630  0.4224
17612SOL     OW53013   5.884   0.279   0.149  0.0339 -0.3574 -0.2549
17612SOL    HW153014   5.921   0.299   0.240  1.6078 -1.3106 -0.6575
17612SOL    HW253015   5.926   0.196   0.113  0.0358  0.4372 -2.1978
17613SOL     OW53016   6.164   3.634   0.144  0.1415 -0.6598 -0.3820
17613SOL    HW153017   6.097   3.568   0.179  0.6597 -0.9044  0.1682
17613SOL    HW253018   6.171   3.626   0.045 -1.3758  0.0564 -0.5860
17614SOL     OW53019   2.850   5.781   6.927  0.1689 -0.4661  0.7871
17614SOL    HW153020   2.893   5.696   6.895  1.3482 -0.3848  2.0912
17614SOL    HW253021   2.762   5.760   6.969 -0.0103 -0.9197  0.1922
17615SOL     OW53022   5.308   0.570   7.344 -1.1254 -0.2558  0.4194
17615SOL    HW153023   5.292   0.474   7.367  1.4290 -0.8790 -0.0696
17615SOL    HW253024   5.310   0.625   7.428 -0.7102 -0.9654  0.8825
17616SOL     OW53025   5.681   1.224   8.403 -0.0957  0.2028 -0.8133
17616SOL    HW153026   5.718   1.250   8.314  1.0672 -1.8360 -0.9865
17616SOL    HW253027   5.737   1.151   8.442  0.5433  2.1952  2.4450
17617SOL     OW53028   3.290   3.561   0.113 -0.5020  0.0186  0.2242
17617SOL    HW153029   3.289   3.636   0.047  1.3235 -0.5168 -0.4812
17617SOL    HW253030   3.355   3.491   0.083 -0.5752 -0.8457  1.9465
17618SOL     OW53031   7.223   7.933   6.328  0.4394  0.2152 -0.0754
17618SOL    HW153032   7.310   7.981   6.321  1.2030 -1.1794 -0.6917
17618SOL    HW253033   7.182   7.924   6.237 -0.4695  1.0434  0.2349
17619SOL     OW53034   3.712   1.460   5.382  0.7471  0.2196 -0.4770
17619SOL    HW153035   3.794   1.502   5.420  0.3804  0.6961 -0.2063
17619SOL    HW253036   3.633   1.480   5.440  0.5939 -1.0041 -0.2380
17620SOL     OW53037   7.102   2.097   0.084  0.0675 -0.2604  0.5884
17620SOL    HW153038   7.002   2.087   0.084  0.1462 -1.1306  0.2818
17620SOL    HW253039   7.139   2.055   0.167  0.2012 -0.2321  0.5422
17621SOL     OW53040   4.004   4.453   1.992  0.7962 -0.2517 -0.0603
17621SOL    HW153041   3.975   4.359   2.010  1.0962 -0.1286  1.2010
17621SOL    HW253042   3.926   4.506   1.959  0.7625 -1.0714 -1.3706
17622SOL     OW53043   8.138   8.394   5.596  0.3837 -0.1501  0.1968
17622SOL    HW153044   8.134   8.338   5.679  0.4399  0.2187  0.4510
17622SOL    HW253045   8.165   8.487   5.620 -1.5802  0.5030  0.0491
17623SOL     OW53046   1.856   0.037   8.802  0.0249  0.3917 -0.1777
17623SOL    HW153047   1.795   0.040   8.882 -0.4348 -1.9332 -0.3733
17623SOL    HW253048   1.817  -0.023   8.733  1.5295  0.5560 -1.2077
17624SOL     OW53049   3.342   8.292   2.201 -0.0970  0.5983  0.3633
17624SOL    HW153050   3.365   8.377   2.155 -0.1621  1.6710  2.1971
17624SOL    HW253051   3.389   8.288   2.290  2.0249 -2.5029 -0.6929
17625SOL     OW53052   1.169   1.188   5.613 -0.4938 -0.2875 -0.6311
17625SOL    HW153053   1.226   1.163   5.691  0.9417 -0.0432 -1.5688
17625SOL    HW253054   1.188   1.282   5.586 -0.4839 -0.5722 -1.6719
17626SOL     OW53055   3.624   4.345   8.801  0.0811 -0.2532  0.5539
17626SOL    HW153056   3.602   4.442   8.794 -0.2083 -0.3302  0.3788
17626SOL    HW253057   3.613   4.315   8.896 -0.6210 -0.2993  0.4618
17627SOL     OW53058   4.708   7.893   5.606  0.1338 -0.1671  0.0462
17627SOL    HW153059   4.702   7.825   5.680 -0.7168  0.7555  0.8497
17627SOL    HW253060   4.736   7.981   5.644  1.1550 -0.0303 -0.9789
17628SOL     OW53061   1.955   7.222   0.019  0.2351  0.7372  1.0327
17628SOL    HW153062   2.045   7.261   0.001  0.2049 -0.0412 -1.0710
17628SOL    HW253063   1.950   7.130  -0.020 -1.0751  0.2733  2.2016
17629SOL     OW53064   0.720   8.144   2.111  0.3057 -0.0774 -0.0210
17629SOL    HW153065   0.705   8.120   2.015  0.4218  2.1762 -0.6552
17629SOL    HW253066   0.768   8.231   2.116 -0.1910  0.1202  2.0996
17630SOL     OW53067   2.698   2.101   4.803 -0.0891 -0.0485  0.7348
17630SOL    HW153068   2.662   2.047   4.879  0.5961 -0.0964  1.0369
17630SOL    HW253069   2.707   2.197   4.830 -0.7757  0.1227  0.3829
17631SOL     OW53070   5.498   8.383   4.101  0.1990 -0.5043  0.3164
17631SOL    HW153071   5.497   8.458   4.167  0.4161 -0.0235 -0.2125
17631SOL    HW253072   5.480   8.297   4.148  0.5311 -0.1965  1.0295
17632SOL     OW53073   2.729   8.551   4.664  0.2021 -0.4901 -0.5411
17632SOL    HW153074   2.823   8.525   4.689  0.0484  0.2663  0.9758
17632SOL    HW253075   2.728   8.589   4.572  1.2010 -1.4816 -0.9858
17633SOL     OW53076   4.420   5.467   6.111  0.7090  0.3260  0.3682
17633SOL    HW153077   4.325   5.448   6.085  0.8090 -1.8796  1.3739
17633SOL    HW253078   4.472   5.491   6.029 -0.5079  0.6715 -0.3385
17634SOL     OW53079   1.235   4.753   5.023 -0.6509  0.3346  0.6145
17634SOL    HW153080   1.154   4.809   5.005 -0.6577  0.3542  0.7083
17634SOL    HW253081   1.213   4.656   5.009 -0.2766  0.4439 -0.9216
17635SOL     OW53082   3.256   1.947   4.444  0.2386 -0.3887  0.1531
17635SOL    HW153083   3.233   2.021   4.381  0.4584 -1.0248 -0.6963
17635SOL    HW253084   3.277   1.985   4.535  3.2995  0.9286 -0.9571
17636SOL     OW53085   6.402   4.754   0.103  0.2021 -0.1306  0.2836
17636SOL    HW153086   6.312   4.732   0.064  0.6085 -0.6910 -0.3575
17636SOL    HW253087   6.390   4.785   0.197 -0.9088  2.3219 -0.5745
17637SOL     OW53088   4.539   0.442   1.648 -0.3452  0.1252 -0.1178
17637SOL    HW153089   4.558   0.352   1.688 -0.9142  0.1128  0.1373
17637SOL    HW253090   4.595   0.455   1.567 -0.5779 -0.6438 -0.4132
17638SOL     OW53091   2.989   5.037   6.803  0.2104 -0.3423  0.1191
17638SOL    HW153092   3.014   4.950   6.759  0.0415  0.0239 -0.7270
17638SOL    HW253093   2.905   5.072   6.762 -0.3903 -0.3646  1.2863
17639SOL     OW53094   5.396   3.057   1.914 -0.3226  0.2097 -0.0190
17639SOL    HW153095   5.389   2.992   1.990  1.8835 -0.7140 -0.5258
17639SOL    HW253096   5.470   3.028   1.852 -2.3493  0.6279 -2.8237
17640SOL     OW53097   5.167   5.541   0.700  0.5058 -0.9178 -0.2655
17640SOL    HW153098   5.067   5.543   0.706  0.4192 -1.8848 -1.1847
17640SOL    HW253099   5.205   5.529   0.791 -0.1685  0.5154  0.2375
17641SOL     OW53100   4.244   7.575   3.680 -0.0247  0.0076 -0.3746
17641SOL    HW153101   4.148   7.589   3.656 -0.8918 -2.3514  1.3028
17641SOL    HW253102   4.269   7.480   3.661  1.5002  0.1584  0.6928
17642SOL     OW53103   1.739   2.388   8.825 -0.5674 -0.5097  0.4502
17642SOL    HW153104   1.773   2.408   8.916  1.6150  3.0167 -0.9422
17642SOL    HW253105   1.815   2.377   8.762 -1.8492  1.8923 -1.7419
17643SOL     OW53106   6.234   7.136   5.965  0.3765  0.5210  0.2813
17643SOL    HW153107   6.298   7.099   5.898  0.8739  0.9570  0.5074
17643SOL    HW253108   6.284   7.189   6.033 -0.1369  0.1840  0.9322
17644SOL     OW53109   1.436   5.439   1.030 -0.2084 -0.3802 -0.0556
17644SOL    HW153110   1.378   5.375   0.980 -0.5922  0.9823 -1.4220
17644SOL    HW253111   1.500   5.388   1.088  1.2695 -2.1075 -2.9926
17645SOL     OW53112   2.665   8.237   2.342  0.1414  0.2749 -0.1308
17645SOL    HW153113   2.573   8.276   2.346  0.1501  0.2964 -0.1323
17645SOL    HW253114   2.662   8.141   2.367 -0.1988 -0.2564 -2.0592
17646SOL     OW53115   5.192   7.369   8.476 -0.4007  0.3613  0.1714
17646SOL    HW153116   5.256   7.321   8.417  0.4859  0.7665  0.7748
17646SOL    HW253117   5.226   7.462   8.494 -0.2355 -0.0093  1.9388
17647SOL     OW53118   0.872   0.097   5.410  0.0602 -0.4137 -0.0963
17647SOL    HW153119   0.900   0.166   5.343  0.0647 -0.4158 -0.0967
17647SOL    HW253120   0.786   0.125   5.453  1.2114  0.7318  1.5633
17648SOL     OW53121   2.391   3.129   2.432 -0.3108 -0.0047  0.6997
17648SOL    HW153122   2.306   3.162   2.390  0.4548 -1.1513 -1.9695
17648SOL    HW253123   2.377   3.035   2.463 -0.1104 -0.0983  0.5078
17649SOL     OW53124   3.642   5.123   4.993 -0.0799 -0.1889 -0.3873
17649SOL    HW153125   3.626   5.085   4.902 -0.3812 -0.5889 -0.1687
17649SOL    HW253126   3.675   5.217   4.984 -1.6487  0.3491 -0.8741
17650SOL     OW53127   8.012   5.830   5.625 -0.0044  0.0112 -0.5008
17650SOL    HW153128   8.001   5.784   5.537 -1.2903 -2.0035  0.6322
17650SOL    HW253129   8.096   5.800   5.669 -0.1980 -0.2794 -0.3253
17651SOL     OW53130   6.784   0.026   8.784 -0.4653 -0.3918 -0.2925
17651SOL    HW153131   6.852   0.097   8.766 -1.0229  0.0618 -0.6340
17651SOL    HW253132   6.827  -0.049   8.835  0.1887  0.0715 -0.1481
17652SOL     OW53133   6.068   8.109   2.160  0.3602 -0.0535 -0.2043
17652SOL    HW153134   6.159   8.072   2.179  0.7648  1.3284  0.6976
17652SOL    HW253135   6.071   8.167   2.078  0.3961  0.3150  0.0536
17653SOL     OW53136   5.591   5.337   5.525  0.1099 -0.1147 -0.0632
17653SOL    HW153137   5.596   5.344   5.425 -1.1359 -2.8728 -0.4178
17653SOL    HW253138   5.503   5.372   5.556  0.5614  0.8910  0.1156
17654SOL     OW53139   0.741   6.176   1.872  0.5545 -0.5183 -0.5656
17654SOL    HW153140   0.643   6.179   1.891  0.6559  0.1869 -0.1263
17654SOL    HW253141   0.791   6.158   1.957  0.9468  1.6941 -0.2768
17655SOL     OW53142   4.152   5.495   2.550  0.3206 -0.3340  0.3705
17655SOL    HW153143   4.250   5.497   2.568  0.5532 -1.4708 -0.6506
17655SOL    HW253144   4.110   5.577   2.588  1.9993  1.3100 -1.1605
17656SOL     OW53145   4.549   4.296   6.674  0.9395 -0.0831 -0.0592
17656SOL    HW153146   4.487   4.288   6.753  0.6766 -0.3280 -0.2875
17656SOL    HW253147   4.643   4.299   6.706  0.8120  0.2853  0.2946
17657SOL     OW53148   2.367   4.570   8.192  0.2066  0.1526 -0.4347
17657SOL    HW153149   2.333   4.662   8.210  0.3365 -0.0268  0.8587
17657SOL    HW253150   2.465   4.566   8.212  0.3272 -0.1167 -1.0667
17658SOL     OW53151   1.371   1.394   5.989 -0.3046  0.4284 -0.1895
17658SOL    HW153152   1.374   1.456   5.911 -1.8519  0.9675  0.1282
17658SOL    HW253153   1.336   1.305   5.960  0.5117  0.1595 -0.3699
17659SOL     OW53154   0.666   5.192   4.143 -0.4069  0.3553 -0.0356
17659SOL    HW153155   0.615   5.188   4.057  0.5246 -2.3892 -0.5485
17659SOL    HW253156   0.764   5.184   4.124  0.0095  1.9350  1.1903
17660SOL     OW53157   1.149   5.972   3.955  0.1261  0.6429  1.0581
17660SOL    HW153158   1.134   5.876   3.931  0.9832  0.8011 -0.1737
17660SOL    HW253159   1.084   5.998   4.026 -1.3325 -0.3441  0.1476
17661SOL     OW53160   5.444   5.357   0.653 -0.2197  0.3822  0.4123
17661SOL    HW153161   5.358   5.398   0.621  0.1865 -0.1880 -1.5476
17661SOL    HW253162   5.514   5.367   0.582  0.8416 -0.7465  1.2553
17662SOL     OW53163   1.237   7.816   0.840 -0.3789  0.0041 -0.5525
17662SOL    HW153164   1.232   7.891   0.906 -0.1703 -0.3901 -0.0847
17662SOL    HW253165   1.288   7.740   0.880  0.7477  0.1859 -1.5821
17663SOL     OW53166   5.663   0.117   6.741  0.1234 -0.4464 -0.0538
17663SOL    HW153167   5.721   0.039   6.764  0.4539 -0.0947  0.3162
17663SOL    HW253168   5.701   0.200   6.781 -1.1882 -0.3665  1.0889
17664SOL     OW53169   3.139   2.588   4.911 -0.1021  0.6361 -0.0610
17664SOL    HW153170   3.171   2.682   4.900 -1.1868  0.9673 -0.5562
17664SOL    HW253171   3.041   2.590   4.934  0.1829 -0.3238  1.3281
17665SOL     OW53172   7.889   2.108   3.725  0.7338  0.4713  0.2064
17665SOL    HW153173   7.809   2.114   3.665  0.5673  1.6603  0.5319
17665SOL    HW253174   7.863   2.134   3.818  1.0637 -1.0291  0.7496
17666SOL     OW53175   1.301   3.335   1.146 -0.7288 -0.7000  0.2136
17666SOL    HW153176   1.283   3.329   1.048 -1.0202 -0.4974  0.2515
17666SOL    HW253177   1.220   3.304   1.196 -1.2071  0.7810  0.3923
17667SOL     OW53178   5.961   7.205   6.028 -0.0514  0.0675  0.3819
17667SOL    HW153179   5.881   7.156   6.063 -0.3697  2.0415  2.7047
17667SOL    HW253180   6.043   7.150   6.043 -0.5493 -0.3500  1.7404
17668SOL     OW53181   0.318   2.002   0.298  0.2918 -0.2927  0.2108
17668SOL    HW153182   0.279   1.954   0.377  0.4152  3.7766  3.0373
17668SOL    HW253183   0.402   2.048   0.325 -1.2638  3.8649 -1.2197
17669SOL     OW53184   1.768   5.008   1.189 -0.1189  0.0206  0.7418
17669SOL    HW153185   1.807   4.916   1.199 -0.2404  0.0666  1.8593
17669SOL    HW253186   1.668   5.003   1.193 -0.2168  0.0181 -1.0621
17670SOL     OW53187   7.734   4.508   5.502 -0.0586 -0.1013 -0.4712
17670SOL    HW153188   7.797   4.550   5.566  0.0483 -0.1390 -0.5528
17670SOL    HW253189   7.665   4.456   5.553  0.6034 -0.9475 -0.4195
17671SOL     OW53190   1.158   4.220   1.347  0.1181  0.0326  0.1288
17671SOL    HW153191   1.170   4.308   1.303  0.3597 -0.0372  0.0590
17671SOL    HW253192   1.060   4.201   1.356  0.0672  0.2158 -0.0351
17672SOL     OW53193   5.924   5.756   3.315 -0.0638  0.1664  0.1555
17672SOL    HW153194   5.865   5.757   3.234 -2.0798  0.6112  1.5426
17672SOL    HW253195   5.869   5.733   3.395  1.6648  0.6939  1.5434
17673SOL     OW53196   0.301   3.944   6.130  0.0875  0.0123 -0.2464
17673SOL    HW153197   0.382   3.912   6.178 -0.1027 -0.2708 -0.1095
17673SOL    HW253198   0.315   3.934   6.031  0.1591 -0.1782 -0.2165
17674SOL     OW53199   8.484   2.344   5.014  0.0674  0.3337  0.0883
17674SOL    HW153200   8.556   2.399   5.056  0.3029 -1.1288  1.6994
17674SOL    HW253201   8.463   2.266   5.072 -1.8212 -0.0799 -1.0567
17675SOL     OW53202   5.899   5.157   2.600 -0.3699  0.3316 -0.1565
17675SOL    HW153203   5.972   5.143   2.666  0.5725  2.5626 -0.6249
17675SOL    HW253204   5.899   5.083   2.533  1.5024  0.3026 -0.1699
17676SOL     OW53205   7.316   6.689   7.419 -0.5262 -0.6635  0.3341
17676SOL    HW153206   7.375   6.694   7.500 -1.1925  0.1057  0.7945
17676SOL    HW253207   7.265   6.775   7.410 -2.6626 -1.8007  0.7999
17677SOL     OW53208   0.110   3.509   1.874 -0.0412 -0.0049  0.7631
17677SOL    HW153209   0.173   3.463   1.811  1.6002  3.4361 -0.3644
17677SOL    HW253210   0.162   3.546   1.952 -0.9322  1.3352  0.7553
17678SOL     OW53211   7.032   3.044   4.026  0.1187 -0.1873 -0.5182
17678SOL    HW153212   7.093   3.109   4.070 -0.4062 -0.7368  1.1193
17678SOL    HW253213   7.076   3.004   3.945  2.4451 -1.4609  1.2614
17679SOL     OW53214   6.041   8.204   5.460 -0.4478 -0.5234  0.1952
17679SOL    HW153215   6.057   8.108   5.438 -0.3719 -0.5213  0.2397
17679SOL    HW253216   6.126   8.255   5.450 -0.1703 -0.6994  1.4415
17680SOL     OW53217   7.828   6.806   8.156 -0.2337 -0.4386 -1.1507
17680SOL    HW153218   7.774   6.836   8.235  0.3099 -0.9932 -0.5570
17680SOL    HW253219   7.780   6.731   8.109 -0.9677  0.4548 -1.8694
17681SOL     OW53220   6.420   3.312   6.349 -0.1903 -0.3520  0.5965
17681SOL    HW153221   6.509   3.270   6.334  0.9410  1.3804  2.0543
17681SOL    HW253222   6.408   3.390   6.287 -0.1471  0.1833  1.2546
17682SOL     OW53223   8.699   6.998   1.591  0.3693  0.5355  0.4096
17682SOL    HW153224   8.778   6.998   1.651  0.3114  0.3098  0.4886
17682SOL    HW253225   8.650   7.085   1.598  1.4307  1.2586 -0.7325
17683SOL     OW53226   5.755   2.204   5.512 -0.0962 -0.2349 -0.5643
17683SOL    HW153227   5.748   2.247   5.422  0.0268  1.2677  0.1151
17683SOL    HW253228   5.806   2.264   5.574  0.9738 -1.8319  0.1680
17684SOL     OW53229   7.249   1.325   4.139  0.3555 -0.4422  0.1257
17684SOL    HW153230   7.230   1.279   4.225  1.4699 -0.4828  0.3547
17684SOL    HW253231   7.215   1.419   4.144 -0.8467 -0.8511  0.0832
17685SOL     OW53232   5.514   4.986   5.221 -0.2920 -0.0254  0.1454
17685SOL    HW153233   5.492   5.073   5.176  0.2455  0.6095  1.0794
17685SOL    HW253234   5.578   4.934   5.163  0.4633  0.8219  0.1946
17686SOL     OW53235   2.607   5.259   6.152  0.2572 -0.2399 -0.0206
17686SOL    HW153236   2.548   5.292   6.225  1.7355 -0.0319  1.1218
17686SOL    HW253237   2.551   5.233   6.073 -1.1771  2.2317  0.0828
17687SOL     OW53238   7.549   4.830   5.005 -0.0552 -0.1340  0.1322
17687SOL    HW153239   7.625   4.880   4.963  1.0287 -1.8511 -0.0657
17687SOL    HW253240   7.513   4.882   5.082  1.0225  0.9352 -0.0527
17688SOL     OW53241   0.510   5.668   7.787 -0.0243 -0.2867  0.2706
17688SOL    HW153242   0.489   5.615   7.870 -0.3455 -0.6003 -0.0077
17688SOL    HW253243   0.463   5.627   7.709  0.9326 -0.4843 -0.2201
17689SOL     OW53244   2.768   4.962   3.269 -0.2307 -0.0525  0.0343
17689SOL    HW153245   2.765   5.050   3.222 -0.7670 -1.1144 -2.0215
17689SOL    HW253246   2.677   4.940   3.305 -0.1545  0.0981  0.3263
17690SOL     OW53247   7.457   7.306   3.322  0.0999  0.0469  0.0918
17690SOL    HW153248   7.461   7.310   3.422 -1.5527 -0.2508  0.1969
17690SOL    HW253249   7.430   7.395   3.285  0.0339 -0.0244 -0.0350
17691SOL     OW53250   1.863   3.749   3.350  0.0719 -0.4785  0.0867
17691SOL    HW153251   1.880   3.668   3.405  1.7690  0.7733  1.5053
17691SOL    HW253252   1.840   3.826   3.410  2.3379  1.0148 -0.8223
17692SOL     OW53253   5.937   4.857   2.123 -0.4898  0.1963 -0.3254
17692SOL    HW153254   5.845   4.881   2.155 -0.2294 -1.9996  2.4411
17692SOL    HW253255   6.005   4.906   2.176 -0.0563 -1.0223  0.2817
17693SOL     OW53256   6.322   4.740   5.724 -0.5567  0.0026  0.0771
17693SOL    HW153257   6.341   4.770   5.818  0.6719 -2.0002  0.5387
17693SOL    HW253258   6.310   4.820   5.665 -3.6673  1.4215  2.2919
17694SOL     OW53259   7.058   2.632   6.209 -0.2064  0.2416  0.1767
17694SOL    HW153260   7.125   2.691   6.254 -0.3621  0.5599 -0.0096
17694SOL    HW253261   7.059   2.649   6.111  1.5674 -1.8636 -0.2405
17695SOL     OW53262   3.483   1.637   7.663  0.3110  0.4220 -0.0967
17695SOL    HW153263   3.515   1.578   7.588  0.4308  0.5893 -0.1785
17695SOL    HW253264   3.383   1.636   7.666  0.3289 -0.6594  0.6012
17696SOL     OW53265   7.223   7.946   1.441  0.1213  0.3758  0.3354
17696SOL    HW153266   7.214   7.858   1.486 -1.0500 -0.1475 -0.8510
17696SOL    HW253267   7.174   7.944   1.354 -1.6981  2.8276  1.1790
17697SOL     OW53268   4.282   6.606   4.791  0.0517 -0.1394 -0.3804
17697SOL    HW153269   4.239   6.695   4.797  0.6500  0.1093  0.3899
17697SOL    HW253270   4.223   6.543   4.741  0.1310  0.9809 -1.9601
17698SOL     OW53271   6.632   3.410   5.628  0.2455 -0.5040 -0.3757
17698SOL    HW153272   6.628   3.442   5.534 -1.7897 -1.1868 -0.5675
17698SOL    HW253273   6.565   3.338   5.642  1.5128 -1.4432  1.2531
17699SOL     OW53274   2.377   1.649   0.579 -0.0952 -0.4510 -0.4014
17699SOL    HW153275   2.380   1.575   0.647 -0.1125 -0.2149 -0.1393
17699SOL    HW253276   2.364   1.736   0.626  1.7835 -0.0463 -0.5329
17700SOL     OW53277   2.026   4.079   6.770  0.1039 -0.1467  0.4205
17700SOL    HW153278   2.069   4.167   6.749  0.7853 -0.6378 -0.3301
17700SOL    HW253279   2.021   4.067   6.869  0.8350  0.3399  0.5244
17701SOL     OW53280   4.552   2.377   8.341  0.1264  0.6151 -0.0883
17701SOL    HW153281   4.612   2.311   8.295 -0.9410 -0.0756 -0.5289
17701SOL    HW253282   4.582   2.470   8.319 -0.2321  0.3115 -2.0670
17702SOL     OW53283   2.396   2.321   4.958 -0.3676  0.2708  0.1428
17702SOL    HW153284   2.337   2.383   4.907 -0.0693  0.7565  0.3809
17702SOL    HW253285   2.340   2.254   5.008 -0.7744  1.3463  1.1759
17703SOL     OW53286   0.831   1.597   8.563 -0.4398 -0.0756 -0.1717
17703SOL    HW153287   0.839   1.504   8.527 -0.3454 -0.5926  1.1063
17703SOL    HW253288   0.790   1.657   8.494  0.9137 -0.7007 -1.5751
17704SOL     OW53289   0.252   6.858   5.671 -0.5321 -0.2154  0.0296
17704SOL    HW153290   0.281   6.787   5.606 -1.1629 -1.0769  0.6717
17704SOL    HW253291   0.285   6.947   5.639  2.0748 -0.9967  0.2477
17705SOL     OW53292   2.708   2.329   8.117  0.4859  0.5016 -0.1032
17705SOL    HW153293   2.614   2.295   8.115  0.0809  1.3709  2.1295
17705SOL    HW253294   2.734   2.352   8.210  2.3081  2.0216 -0.9109
17706SOL     OW53295   7.006   0.760   0.029  0.1332  0.3998 -0.3318
17706SOL    HW153296   6.999   0.821  -0.050  3.2373  1.8591  0.3900
17706SOL    HW253297   6.995   0.814   0.113  1.9288 -0.1567  0.2960
17707SOL     OW53298   8.196   0.294   3.092 -0.6847 -0.2446 -0.1193
17707SOL    HW153299   8.183   0.227   3.019  1.2568 -0.2947 -0.4611
17707SOL    HW253300   8.253   0.369   3.059 -0.7438  0.3203  1.0076
17708SOL     OW53301   5.145   5.003   4.751 -0.2974  0.3492 -0.0422
17708SOL    HW153302   5.235   4.995   4.709 -0.2692  1.1107 -0.1485
17708SOL    HW253303   5.093   4.920   4.735 -0.7717  1.0611 -2.7536
17709SOL     OW53304   0.438   5.366   3.671 -0.1955 -0.1546  0.3770
17709SOL    HW153305   0.470   5.458   3.650 -1.5895  0.5554  1.2414
17709SOL    HW253306   0.357   5.346   3.615 -1.2146  0.0127  1.7554
17710SOL     OW53307   1.568   0.657   5.972  0.3792  0.0144 -0.1062
17710SOL    HW153308   1.567   0.677   5.874  1.5372 -2.3090 -0.6614
17710SOL    HW253309   1.649   0.604   5.994 -0.6648 -0.8809  1.8208
17711SOL     OW53310   8.233   7.956   4.105 -0.6011  0.0991 -0.1980
17711SOL    HW153311   8.314   7.915   4.064 -1.7184 -2.2448 -0.2409
17711SOL    HW253312   8.187   8.014   4.038  2.0432  3.1914  0.4430
17712SOL     OW53313   0.380   8.419   8.790 -0.3998 -0.5021 -0.1062
17712SOL    HW153314   0.337   8.340   8.835  0.1639 -0.6298  0.2231
17712SOL    HW253315   0.361   8.502   8.842 -2.2810 -0.1486 -1.2673
17713SOL     OW53316   3.257   5.766   7.792 -0.1996 -0.0238 -0.1996
17713SOL    HW153317   3.322   5.812   7.852 -0.6651 -0.5606  0.7327
17713SOL    HW253318   3.282   5.669   7.784  1.7849  0.6130 -3.4852
17714SOL     OW53319   0.463   2.320   2.303 -0.1316 -0.2732  0.0018
17714SOL    HW153320   0.423   2.411   2.313 -0.2420 -0.1658 -1.2823
17714SOL    HW253321   0.497   2.288   2.392  0.9515  1.5056  0.2705
17715SOL     OW53322   6.763   5.426   7.476  0.1379  0.3618 -0.7478
17715SOL    HW153323   6.846   5.476   7.501  0.8663 -0.1545 -1.9808
17715SOL    HW253324   6.788   5.351   7.415 -1.2513  0.2324 -1.1861
17716SOL     OW53325   5.327   8.663   1.605  0.1175  0.2567 -1.1083
17716SOL    HW153326   5.355   8.736   1.668 -0.0542  1.4241 -2.3305
17716SOL    HW253327   5.264   8.701   1.537 -0.2912 -1.1474 -1.5440
17717SOL     OW53328   6.040   6.666   2.813 -0.0265 -0.1490 -0.7205
17717SOL    HW153329   6.024   6.654   2.911 -0.2000 -0.2948 -0.7669
17717SOL    HW253330   6.056   6.762   2.793 -2.5835  0.2811 -0.9356
17718SOL     OW53331   1.423   0.501   7.915  0.1773 -0.5916 -0.1784
17718SOL    HW153332   1.374   0.458   7.991  0.8592 -1.1451 -0.0411
17718SOL    HW253333   1.521   0.492   7.930  0.3360  0.7050 -0.3364
17719SOL     OW53334   1.929   7.176   5.410  0.7215 -0.5709  0.2379
17719SOL    HW153335   2.009   7.122   5.382  0.8306  0.0247 -0.6409
17719SOL    HW253336   1.953   7.230   5.491  0.8377 -1.2683  0.6820
17720SOL     OW53337   8.455   1.740   0.543  0.3429  0.9123  0.3714
17720SOL    HW153338   8.541   1.689   0.552 -1.0160 -1.8586 -1.1095
17720SOL    HW253339   8.406   1.709   0.462 -2.0608  2.4826  1.1061
17721SOL     OW53340   6.122   8.309   2.615 -0.2308 -0.3983  0.1240
17721SOL    HW153341   6.030   8.332   2.646 -1.6011 -0.9015 -3.1610
17721SOL    HW253342   6.187   8.376   2.650 -2.2571  1.5236  0.4452
17722SOL     OW53343   6.858   7.293   8.221 -0.2236  0.0192  0.6914
17722SOL    HW153344   6.941   7.238   8.215  0.1324  0.6420 -0.4872
17722SOL    HW253345   6.798   7.256   8.292  1.2326 -0.2003  1.8498
17723SOL     OW53346   7.397   2.297   6.912  0.2261  0.2881  0.1829
17723SOL    HW153347   7.421   2.394   6.923  1.0761  0.1552 -0.4463
17723SOL    HW253348   7.434   2.263   6.826 -0.8873 -0.3586 -0.0616
17724SOL     OW53349   3.372   5.890   2.023  0.0752 -0.4907  0.3335
17724SOL    HW153350   3.468   5.919   2.029  0.2228 -0.9578  0.3230
17724SOL    HW253351   3.365   5.794   2.051 -0.2116 -0.8165 -0.7934
17725SOL     OW53352   8.364   7.232   8.847 -0.3390 -0.0001  0.4786
17725SOL    HW153353   8.437   7.196   8.906  0.4188  0.4682 -0.1565
17725SOL    HW253354   8.301   7.287   8.901 -1.4592 -2.1175  1.4646
17726SOL     OW53355   5.122   4.079   8.178 -0.0348  0.7347 -1.0500
17726SOL    HW153356   5.101   4.018   8.254  0.0008  0.2714 -1.4066
17726SOL    HW253357   5.209   4.125   8.195  0.0143  0.5681 -0.8462
17727SOL     OW53358   7.809   7.505   5.392 -0.2857  0.0222 -0.2518
17727SOL    HW153359   7.764   7.463   5.314 -0.3623 -0.6611  0.1560
17727SOL    HW253360   7.785   7.602   5.396 -0.6117 -0.0303 -0.8293
17728SOL     OW53361   4.474   8.489   6.874  0.2602 -0.1915 -0.2939
17728SOL    HW153362   4.531   8.471   6.793 -0.0079  1.2287 -0.8243
17728SOL    HW253363   4.378   8.473   6.851  0.2178 -0.1561 -0.1435
17729SOL     OW53364   4.660   2.143   5.261 -0.5866 -0.0205  0.0484
17729SOL    HW153365   4.564   2.167   5.246 -0.0411  1.4158 -1.4037
17729SOL    HW253366   4.718   2.204   5.208  1.1444 -0.9738  0.7764
17730SOL     OW53367   7.292   6.598   4.718  0.1369  0.6285  0.0484
17730SOL    HW153368   7.249   6.512   4.743  0.0164  0.1564 -1.6166
17730SOL    HW253369   7.346   6.632   4.795 -0.7737 -0.3059  1.1395
17731SOL     OW53370   5.148   0.815   1.242 -0.9139 -0.1492  0.8577
17731SOL    HW153371   5.088   0.894   1.238 -1.7223 -0.8005 -0.4802
17731SOL    HW253372   5.096   0.732   1.220  0.2629 -0.8481  0.5993
17732SOL     OW53373   5.644   2.818   1.402 -0.3902 -0.4957  0.1387
17732SOL    HW153374   5.733   2.865   1.402 -0.3968 -0.4772  0.5704
17732SOL    HW253375   5.649   2.738   1.461 -0.2935 -1.2215 -0.8215
17733SOL     OW53376   4.723   2.421   5.461 -0.8183 -0.3020 -0.0615
17733SOL    HW153377   4.765   2.331   5.471 -4.6053 -2.1813  1.0846
17733SOL    HW253378   4.675   2.426   5.373  0.5260  1.2721 -0.7738
17734SOL     OW53379   2.443   3.466   0.580 -0.7098  0.8914  0.5556
17734SOL    HW153380   2.426   3.426   0.670  0.8575  1.5487  1.1867
17734SOL    HW253381   2.369   3.530   0.557 -2.0925 -0.6718  0.5107
17735SOL     OW53382   7.452   8.057   3.947  0.1044  0.6657 -0.3624
17735SOL    HW153383   7.419   8.094   3.860  0.2330  0.9645 -0.2882
17735SOL    HW253384   7.494   8.131   4.000  0.2843  0.4274 -0.1712
17736SOL     OW53385   4.139   0.165   3.130 -0.1582  0.4156  0.0226
17736SOL    HW153386   4.073   0.110   3.078 -0.4586  2.8746 -2.4831
17736SOL    HW253387   4.228   0.121   3.126 -0.6475 -0.5702 -0.7279
17737SOL     OW53388   0.069   3.348   2.240 -0.5467 -0.5051  0.4045
17737SOL    HW153389   0.087   3.261   2.194 -0.0983 -1.5085  2.3602
17737SOL    HW253390  -0.028   3.372   2.229 -0.3526 -0.4171 -1.4520
17738SOL     OW53391   4.189   0.977   6.588  0.1749 -0.3428  0.5507
17738SOL    HW153392   4.287   0.985   6.606  0.1968 -1.3037  0.8947
17738SOL    HW253393   4.156   0.889   6.621 -0.4214 -0.8512 -1.2921
17739SOL     OW53394   6.859   4.647   0.770  0.2150 -0.1951  0.0165
17739SOL    HW153395   6.812   4.719   0.719 -1.8808 -0.6434  1.1867
17739SOL    HW253396   6.952   4.676   0.790 -0.1879  1.6676 -0.5955
17740SOL     OW53397   6.631   7.373   1.855  0.0395  0.3388  0.1520
17740SOL    HW153398   6.619   7.277   1.883  2.5151  0.3804  1.6699
17740SOL    HW253399   6.575   7.392   1.775  0.9048 -2.9516 -1.4011
17741SOL     OW53400   1.078   5.393   5.220 -0.3920  0.0970 -0.6796
17741SOL    HW153401   1.043   5.475   5.265 -0.9418 -0.9976  1.0176
17741SOL    HW253402   1.167   5.369   5.260 -1.0027 -1.0353  0.0817
17742SOL     OW53403   0.939   4.655   6.912 -0.3734 -0.1372  0.2736
17742SOL    HW153404   1.033   4.627   6.931 -0.1170 -0.8618 -1.7525
17742SOL    HW253405   0.889   4.669   6.998  1.2347 -0.8994  1.3672
17743SOL     OW53406   7.167   3.289   3.991 -0.0848  0.6050  0.1371
17743SOL    HW153407   7.087   3.270   3.934 -0.3184  1.9793 -0.0400
17743SOL    HW253408   7.241   3.326   3.934  0.2462  0.4817  0.4838
17744SOL     OW53409   0.526   5.486   5.835 -0.0614 -0.0875  0.1682
17744SOL    HW153410   0.539   5.570   5.781  0.3532  0.0299  0.4475
17744SOL    HW253411   0.508   5.410   5.773  0.8867 -0.0428 -0.1844
17745SOL     OW53412   4.697   4.498   0.647 -0.3787  0.0496  0.0409
17745SOL    HW153413   4.761   4.455   0.582 -1.9092 -1.8074 -0.3186
17745SOL    HW253414   4.724   4.475   0.740 -1.0442 -1.5685 -0.1430
17746SOL     OW53415   2.530   1.990   7.428  0.0181  0.2758  0.0595
17746SOL    HW153416   2.562   1.975   7.335  1.5126 -0.9843  0.7240
17746SOL    HW253417   2.560   2.081   7.460  0.8276  0.1034 -0.1849
17747SOL     OW53418   7.033   1.179   8.046 -0.4992 -0.2824  0.5072
17747SOL    HW153419   6.954   1.221   8.090 -2.0446 -1.1791 -1.2580
17747SOL    HW253420   7.002   1.119   7.972  1.6305 -3.3435  1.8677
17748SOL     OW53421   1.015   3.276   1.320 -0.4480  0.2406  0.1851
17748SOL    HW153422   1.070   3.291   1.402 -0.7484  0.1903  0.4001
17748SOL    HW253423   0.985   3.365   1.284  2.6082  0.5709 -1.9488
17749SOL     OW53424   7.115   7.251   7.773  0.0344 -0.3212 -0.4841
17749SOL    HW153425   7.129   7.337   7.725 -2.0856 -0.0315 -0.6850
17749SOL    HW253426   7.080   7.182   7.709 -1.2282 -0.4151  0.2850
17750SOL     OW53427   2.526   5.604   8.544 -0.3220 -0.9441  0.3751
17750SOL    HW153428   2.442   5.651   8.571  0.3181  0.7510 -0.4523
17750SOL    HW253429   2.568   5.563   8.625 -0.8158  0.0626  1.1795
17751SOL     OW53430   3.532   8.565   5.289  0.4403 -0.8275 -0.1194
17751SOL    HW153431   3.462   8.631   5.261  1.1006  0.6431  1.5134
17751SOL    HW253432   3.544   8.496   5.217 -1.8393 -0.4626 -0.9155
17752SOL     OW53433   2.522   0.318   2.879 -0.1025  0.4024  0.1749
17752SOL    HW153434   2.520   0.254   2.802  2.5069  1.5049 -0.9277
17752SOL    HW253435   2.428   0.338   2.908 -1.0810 -1.7467 -1.2353
17753SOL     OW53436   7.190   2.278   1.347 -0.0138 -0.6405  0.1871
17753SOL    HW153437   7.138   2.316   1.424 -0.5319 -0.7137 -0.1189
17753SOL    HW253438   7.246   2.202   1.380  0.8007  0.1738  0.7421
17754SOL     OW53439   4.833   5.011   7.905  0.2865 -0.3221 -0.2098
17754SOL    HW153440   4.820   5.067   7.987  2.3078 -0.3235  0.1517
17754SOL    HW253441   4.854   4.917   7.931  0.7074 -0.3753 -0.7276
17755SOL     OW53442   1.410   3.478   7.037 -0.0413 -0.3444  0.0113
17755SOL    HW153443   1.348   3.403   7.013 -0.6317 -0.7278  2.4893
17755SOL    HW253444   1.460   3.454   7.120  2.5059  0.5250 -1.1727
17756SOL     OW53445   8.099   4.133   3.202  0.3720 -0.0600 -0.0259
17756SOL    HW153446   8.029   4.149   3.132  0.2570 -1.7483 -0.3284
17756SOL    HW253447   8.070   4.058   3.262  1.1866  0.3243  0.8784
17757SOL     OW53448   5.313   6.071   0.986 -0.3665 -0.0751 -0.4682
17757SOL    HW153449   5.231   6.024   0.954 -0.3090  0.3212 -1.2215
17757SOL    HW253450   5.317   6.162   0.943 -0.4011  0.5623  0.8290
17758SOL     OW53451   0.492   3.461   4.842  0.2246  0.1649  0.2983
17758SOL    HW153452   0.403   3.472   4.887  0.2245  0.4980  0.2205
17758SOL    HW253453   0.497   3.371   4.799 -0.6974  0.7276 -1.0601
17759SOL     OW53454   4.888   4.892   5.515  0.7300 -0.0515  0.1276
17759SOL    HW153455   4.973   4.839   5.516  0.6221 -0.2211  0.4799
17759SOL    HW253456   4.822   4.847   5.456  0.4473 -0.6189  0.8678
17760SOL     OW53457   4.717   2.871   2.826 -0.3347 -0.3047 -0.0609
17760SOL    HW153458   4.640   2.883   2.889 -0.2889 -0.3118 -0.0031
17760SOL    HW253459   4.802   2.898   2.871 -0.4407  0.8443 -0.5063
17761SOL     OW53460   3.938   4.256   5.060  0.3010  0.1932  0.4158
17761SOL    HW153461   4.003   4.291   4.993  0.6419  1.4634  1.3636
17761SOL    HW253462   3.952   4.158   5.073  0.0515 -0.1214 -1.5237
17762SOL     OW53463   1.639   5.327   8.410 -0.1916  0.1100 -0.2848
17762SOL    HW153464   1.615   5.231   8.420  2.0971 -0.7322 -2.0855
17762SOL    HW253465   1.578   5.370   8.343  0.0637 -0.6622 -1.0307
17763SOL     OW53466   2.689   2.561   2.775  0.4554  0.0110 -0.0744
17763SOL    HW153467   2.601   2.602   2.799  0.0829  0.1349 -1.5717
17763SOL    HW253468   2.685   2.525   2.682  1.6446 -0.9904  0.2316
17764SOL     OW53469   3.929   1.824   1.152 -0.5593 -0.4822 -0.2514
17764SOL    HW153470   3.898   1.914   1.120 -1.0510 -1.3432 -2.3352
17764SOL    HW253471   3.856   1.781   1.205 -0.4940  0.1313  0.3573
17765SOL     OW53472   4.050   2.645   3.477 -0.0997  0.0991  0.3353
17765SOL    HW153473   4.079   2.564   3.426  0.4090 -0.0112  0.7927
17765SOL    HW253474   4.016   2.617   3.567  1.3009  0.4854  1.0129
17766SOL     OW53475   0.315   4.635   1.750 -0.0649 -0.1436 -0.7816
17766SOL    HW153476   0.369   4.713   1.719 -0.4462 -0.1802 -1.5777
17766SOL    HW253477   0.231   4.667   1.794  0.0530 -0.0977 -0.5915
17767SOL     OW53478   0.115   3.126   2.526  0.0682  0.6455  0.0263
17767SOL    HW153479   0.113   3.069   2.445  0.6534 -0.7152  0.9368
17767SOL    HW253480   0.136   3.070   2.606 -0.1837  1.9995  1.0808
17768SOL     OW53481   2.431   8.368   3.066 -0.0669  0.1953  0.4602
17768SOL    HW153482   2.469   8.428   2.995  0.0520  1.7454  1.7911
17768SOL    HW253483   2.341   8.402   3.093 -0.9752 -1.5004 -0.2639
17769SOL     OW53484   3.842   6.003   2.513 -0.2116  0.7986  0.3800
17769SOL    HW153485   3.748   5.999   2.547  0.1151  0.2647  1.2627
17769SOL    HW253486   3.857   5.929   2.447 -0.0901  0.1649  1.1070
17770SOL     OW53487   7.579   8.368   0.380 -0.0565  0.2801  0.0647
17770SOL    HW153488   7.482   8.394   0.377  0.5417  2.7903  0.4759
17770SOL    HW253489   7.630   8.421   0.313  1.2737  0.1484  0.9486
17771SOL     OW53490   8.455   3.635   1.204 -0.0845  0.0994  0.6406
17771SOL    HW153491   8.468   3.619   1.302 -0.1338  1.4432  0.8898
17771SOL    HW253492   8.360   3.660   1.186 -0.4966 -1.7867 -0.0210
17772SOL     OW53493   3.556   5.866   3.348 -1.0396  0.9710 -0.6822
17772SOL    HW153494   3.590   5.940   3.291  0.6772  0.7105 -0.0795
17772SOL    HW253495   3.631   5.833   3.407 -1.3739 -2.0223 -1.7690
17773SOL     OW53496   4.052   0.361   1.891 -0.3869  0.2931  0.1634
17773SOL    HW153497   4.144   0.328   1.909 -0.5304  0.2399  0.7990
17773SOL    HW253498   4.045   0.458   1.915 -0.2019  0.5942 -0.9094
17774SOL     OW53499   1.464   5.346   5.085 -0.2321  0.2447 -0.2084
17774SOL    HW153500   1.435   5.440   5.097 -0.2950  0.0996  0.8439
17774SOL    HW253501   1.527   5.320   5.158 -0.6575 -0.7019 -0.1584
17775SOL     OW53502   8.176   1.966   0.380 -0.1356  0.0701 -0.0753
17775SOL    HW153503   8.127   1.884   0.412 -0.4069 -0.1410 -0.9678
17775SOL    HW253504   8.116   2.045   0.388 -0.5744 -0.1542 -0.9767
17776SOL     OW53505   0.529   2.768   2.396 -0.4855 -0.4331 -0.2309
17776SOL    HW153506   0.462   2.782   2.324  0.7585  0.0173 -1.3352
17776SOL    HW253507   0.612   2.727   2.358  0.9771  1.6520  0.5006
17777SOL     OW53508   3.074   0.436   6.038  0.6444 -0.5076 -0.3630
17777SOL    HW153509   3.161   0.456   6.083  1.8100 -0.8836 -2.3319
17777SOL    HW253510   3.091   0.388   5.952 -1.6544 -2.6145  0.2453
17778SOL     OW53511   3.982   1.649   2.390 -0.3074  0.7495 -0.1254
17778SOL    HW153512   3.905   1.663   2.452 -0.6342 -1.1988 -0.0184
17778SOL    HW253513   4.068   1.662   2.440 -0.5732 -0.0923  0.5919
17779SOL     OW53514   5.599   6.813   2.522  0.3605 -0.6198 -0.2178
17779SOL    HW153515   5.521   6.796   2.582  0.6966 -2.6739 -0.2884
17779SOL    HW253516   5.671   6.861   2.573  0.1676 -1.2654  0.6741
17780SOL     OW53517   1.572   0.316   7.622  0.5949  0.4482  0.1623
17780SOL    HW153518   1.613   0.264   7.547 -0.2795 -0.3836  0.2408
17780SOL    HW253519   1.634   0.315   7.700  1.2740  0.8623 -0.3577
17781SOL     OW53520   4.429   4.591   2.640  0.3512  0.2717 -0.3593
17781SOL    HW153521   4.419   4.660   2.568 -0.2681 -1.2819 -1.8215
17781SOL    HW253522   4.525   4.563   2.646  0.5584  1.0524  0.0555
17782SOL     OW53523   6.740   6.665   5.780 -0.1729  0.1134 -0.0415
17782SOL    HW153524   6.686   6.587   5.747  0.2343  0.3627 -1.3357
17782SOL    HW253525   6.817   6.631   5.834 -0.3088 -0.3482 -0.1272
17783SOL     OW53526   1.568   8.580   6.572 -0.2436 -0.0636  0.0325
17783SOL    HW153527   1.613   8.645   6.634 -0.0753 -1.1781  1.1243
17783SOL    HW253528   1.478   8.614   6.547 -1.3660 -0.6908  2.9144
17784SOL     OW53529   0.054   5.127   0.230  0.1568  0.3633  0.2048
17784SOL    HW153530   0.013   5.078   0.306  0.0160 -0.2089 -0.2345
17784SOL    HW253531  -0.019   5.166   0.173  0.0780 -2.1440 -1.5765
17785SOL     OW53532   1.347   2.620   5.597 -0.0149 -0.6190  0.1359
17785SOL    HW153533   1.282   2.577   5.533  0.4832  0.2887 -1.0223
17785SOL    HW253534   1.304   2.628   5.687 -1.2405 -0.7044 -0.4179
17786SOL     OW53535   8.272   6.886   1.465 -0.1570 -0.3541  0.4747
17786SOL    HW153536   8.299   6.791   1.453 -0.0949 -0.2683 -0.0890
17786SOL    HW253537   8.173   6.891   1.479 -0.3189 -0.4265 -0.5621
17787SOL     OW53538   0.514   3.412   7.453  0.0120  0.3971  0.2980
17787SOL    HW153539   0.553   3.480   7.391  1.5220 -0.6202  0.0793
17787SOL    HW253540   0.548   3.428   7.546  1.2256 -0.6396  0.0639
17788SOL     OW53541   0.481   2.816   0.912  0.2140 -0.2402  0.6475
17788SOL    HW153542   0.553   2.875   0.873  0.6111  0.2660  2.0746
17788SOL    HW253543   0.394   2.835   0.866  0.9641 -0.9025 -1.1536
17789SOL     OW53544   7.931   2.412   2.646  0.1471 -0.0819 -0.1773
17789SOL    HW153545   7.937   2.496   2.701  0.7228  1.7903 -2.9127
17789SOL    HW253546   8.007   2.410   2.581 -0.0263 -2.6416 -0.3828
17790SOL     OW53547   8.059   4.464   8.580  0.2753  0.4670  0.1926
17790SOL    HW153548   8.115   4.381   8.575  2.5928  1.9073  0.3719
17790SOL    HW253549   8.048   4.502   8.488  0.0511  0.4562  0.2162
17791SOL     OW53550   5.583   5.957   0.960 -0.3333  0.1363 -0.4277
17791SOL    HW153551   5.562   5.860   0.942 -0.6303  0.0303  0.4375
17791SOL    HW253552   5.498   6.005   0.982  0.0628  0.0957  1.3371
17792SOL     OW53553   0.835   5.740   0.502  0.5974 -0.2663 -0.5442
17792SOL    HW153554   0.747   5.754   0.455 -0.6863  0.1260  1.8296
17792SOL    HW253555   0.903   5.710   0.435 -1.1565 -0.0003 -2.5905
17793SOL     OW53556   3.906   6.342   5.461 -0.4248  0.3294  0.6243
17793SOL    HW153557   3.944   6.425   5.420 -2.2339  0.6335 -0.5491
17793SOL    HW253558   3.840   6.367   5.531 -1.8739 -0.0387 -0.5573
17794SOL     OW53559   6.247   5.006   6.184 -0.1109  0.7216 -0.3352
17794SOL    HW153560   6.229   5.098   6.151  1.4520  0.8570 -0.9072
17794SOL    HW253561   6.262   5.007   6.283  0.3896  1.1677 -0.4138
17795SOL     OW53562   0.508   5.141   4.379 -0.0178 -0.1335 -0.0049
17795SOL    HW153563   0.412   5.164   4.362 -0.0991  1.0377  1.7316
17795SOL    HW253564   0.558   5.138   4.293 -1.2254  1.1981 -0.7843
17796SOL     OW53565   3.238   6.511   5.341  0.3548  0.8591  0.0675
17796SOL    HW153566   3.166   6.507   5.271  2.0360 -3.2605 -1.8131
17796SOL    HW253567   3.302   6.585   5.319 -0.3969  1.0897 -1.4692
17797SOL     OW53568   3.821   1.046   0.985  0.8459  0.3206 -0.2911
17797SOL    HW153569   3.819   0.999   1.073 -2.5361  0.9281  0.1143
17797SOL    HW253570   3.817   0.980   0.911  0.0572 -0.1466  0.1571
17798SOL     OW53571   3.454   8.720   3.123 -0.6322 -0.1240  0.1452
17798SOL    HW153572   3.365   8.759   3.101 -1.1530 -1.0025  0.6353
17798SOL    HW253573   3.442   8.642   3.184  0.4865 -0.1771  0.3221
17799SOL     OW53574   3.621   7.162   0.499  0.1034 -0.1342  0.3466
17799SOL    HW153575   3.601   7.083   0.441 -0.0429  0.2825 -0.1800
17799SOL    HW253576   3.710   7.200   0.473  0.5369 -0.5881  1.1249
17800SOL     OW53577   3.434   2.829   0.075  0.3755 -0.3163  0.0207
17800SOL    HW153578   3.415   2.857  -0.019  0.3466  1.3436  0.4810
17800SOL    HW253579   3.355   2.781   0.113 -1.1025  2.1566  0.3109
17801SOL     OW53580   4.074   1.819   7.019 -0.3947  0.2578  0.1302
17801SOL    HW153581   4.132   1.755   6.968 -2.1981 -1.7287  0.4256
17801SOL    HW253582   4.077   1.909   6.975  1.6401 -0.1856 -0.7568
17802SOL     OW53583   8.531   3.383   8.368  0.1510 -0.0371  0.2108
17802SOL    HW153584   8.631   3.373   8.366  0.0736 -1.3934  1.2781
17802SOL    HW253585   8.501   3.428   8.284  1.7651  1.6430  0.4644
17803SOL     OW53586   8.852   0.935   6.298 -0.0160  0.2167  0.6949
17803SOL    HW153587   8.848   0.975   6.390  2.4419 -0.2816  1.1051
17803SOL    HW253588   8.947   0.918   6.274 -0.5990  0.3844 -2.0178
17804SOL     OW53589   5.483   4.660   3.773 -0.0114 -0.1873 -0.5191
17804SOL    HW153590   5.525   4.574   3.804 -0.3505  0.2617  1.3438
17804SOL    HW253591   5.389   4.642   3.745  0.0228 -0.4940 -0.4447
17805SOL     OW53592   1.281   8.765   4.175  0.4747  0.1289 -0.4693
17805SOL    HW153593   1.204   8.740   4.234 -0.1992 -0.0578 -1.3956
17805SOL    HW253594   1.359   8.793   4.231  0.1710 -0.9512  0.5252
17806SOL     OW53595   2.589   5.898   4.426 -0.1614 -0.0134  0.3303
17806SOL    HW153596   2.687   5.883   4.438  0.5805  1.8590 -2.4953
17806SOL    HW253597   2.561   5.861   4.337 -1.0030  3.1272 -0.8526
17807SOL     OW53598   4.994   5.337   7.533 -0.1062  0.2391  0.5336
17807SOL    HW153599   5.025   5.424   7.572 -2.1109  0.9706  0.6215
17807SOL    HW253600   4.996   5.266   7.604 -2.2410  1.2026  1.6653
17808SOL     OW53601   7.662   6.770   3.323  0.6795 -0.9675  0.4927
17808SOL    HW153602   7.587   6.748   3.385 -0.1678  0.4300  0.0109
17808SOL    HW253603   7.741   6.712   3.344  0.5499 -0.3013  3.0823
17809SOL     OW53604   3.408   1.895   3.266  0.2688 -0.3569 -0.5529
17809SOL    HW153605   3.454   1.931   3.185  1.4952  0.2960  0.4014
17809SOL    HW253606   3.314   1.928   3.269  1.1853  2.5052  0.0216
17810SOL     OW53607   3.134   5.418   4.945  0.2200  0.6025  0.2202
17810SOL    HW153608   3.165   5.494   5.001  1.9037  0.7155 -0.7790
17810SOL    HW253609   3.213   5.376   4.899 -0.7890 -1.0799 -0.0781
17811SOL     OW53610   7.136   1.490   8.565  0.3544 -0.0201 -0.3161
17811SOL    HW153611   7.073   1.535   8.629  0.0082 -1.2626  0.2423
17811SOL    HW253612   7.229   1.518   8.586  0.0997  0.8785 -0.3474
17812SOL     OW53613   6.452   7.401   3.049  0.3179 -0.0649 -0.5361
17812SOL    HW153614   6.552   7.401   3.055  0.3357  1.7241 -0.3831
17812SOL    HW253615   6.418   7.495   3.048 -1.1979 -0.5027 -3.5462
17813SOL     OW53616   5.550   1.559   8.243  0.3211 -0.4911  0.1955
17813SOL    HW153617   5.547   1.604   8.332 -1.0141 -1.6489  0.7813
17813SOL    HW253618   5.538   1.627   8.170  1.1167  0.4249  0.8901
17814SOL     OW53619   1.181   4.750   6.478 -0.5619 -0.1624  0.8232
17814SOL    HW153620   1.129   4.682   6.427  0.5233 -0.4557  0.0881
17814SOL    HW253621   1.205   4.713   6.568  0.2671 -0.8639  0.3170
17815SOL     OW53622   6.115   3.023   6.906 -0.1556 -0.0622  0.1030
17815SOL    HW153623   6.191   2.966   6.872  0.7741  1.2677 -0.1432
17815SOL    HW253624   6.030   2.970   6.903  0.4296 -1.0022 -1.3911
17816SOL     OW53625   1.094   2.177   0.622  0.1495 -0.1376  0.6845
17816SOL    HW153626   1.081   2.078   0.621  1.1273 -0.2748  0.5581
17816SOL    HW253627   1.036   2.218   0.692  0.5066 -0.9137  1.4457
17817SOL     OW53628   6.899   6.622   1.618 -0.0055  0.5404  0.1237
17817SOL    HW153629   6.884   6.676   1.701 -1.0117 -0.6197  0.7355
17817SOL    HW253630   6.994   6.630   1.589 -0.0648  2.4034  0.3363
17818SOL     OW53631   1.926   1.053   5.557  0.3385  0.1018 -0.1477
17818SOL    HW153632   1.995   1.011   5.497  1.8045  2.2577 -0.1122
17818SOL    HW253633   1.968   1.074   5.645 -1.2897 -1.3383  1.0382
17819SOL     OW53634   5.000   8.534   3.062  0.0372  0.0317 -0.4457
17819SOL    HW153635   5.088   8.493   3.038 -0.3452 -0.6882 -0.6507
17819SOL    HW253636   5.006   8.573   3.154 -0.2686 -2.6493  0.8011
17820SOL     OW53637   6.834   2.075   0.043  0.3086  0.3510  0.5477
17820SOL    HW153638   6.813   2.035  -0.046 -0.3274  2.6371 -0.3998
17820SOL    HW253639   6.757   2.061   0.105  0.2939 -0.2738  0.3977
17821SOL     OW53640   3.161   2.344   4.099 -1.0897  0.5921 -0.3797
17821SOL    HW153641   3.079   2.363   4.153  0.3656 -0.0891  2.2111
17821SOL    HW253642   3.136   2.288   4.019 -2.7720 -2.8229  2.2716
17822SOL     OW53643   6.013   0.831   2.731  0.2574  0.4369  0.2558
17822SOL    HW153644   5.996   0.901   2.800 -1.2014  0.9390 -0.5780
17822SOL    HW253645   5.997   0.740   2.770  0.2304  0.6761  0.7966
17823SOL     OW53646   0.211   7.499   4.238 -0.2021  0.3282 -0.2335
17823SOL    HW153647   0.245   7.559   4.310  0.2738 -0.1158 -0.0863
17823SOL    HW253648   0.117   7.525   4.214 -0.6556 -0.0153  1.0967
17824SOL     OW53649   4.719   3.968   8.391 -0.4964 -0.1163  0.3592
17824SOL    HW153650   4.769   3.940   8.473  0.8974 -0.4576 -0.5750
17824SOL    HW253651   4.719   4.067   8.383 -0.7220 -0.0766  0.8030
17825SOL     OW53652   1.743   6.865   4.550  0.2525 -0.1244 -0.0704
17825SOL    HW153653   1.786   6.782   4.584 -0.4209 -0.5836 -0.3229
17825SOL    HW253654   1.648   6.868   4.579  0.9575  1.9267  2.3109
17826SOL     OW53655   1.898   4.484   0.405 -0.6836  0.3221 -0.1727
17826SOL    HW153656   1.993   4.513   0.395 -0.5581 -0.2577 -0.7028
17826SOL    HW253657   1.866   4.442   0.320 -1.5289  0.8243 -0.1196
17827SOL     OW53658   2.017   1.583   2.818  0.2232 -0.0571 -0.3893
17827SOL    HW153659   1.926   1.556   2.848 -0.3542  1.8169 -0.3412
17827SOL    HW253660   2.030   1.557   2.722  0.2123 -1.6136  0.0043
17828SOL     OW53661   8.558   4.517   2.561  0.4065  0.2514 -0.2490
17828SOL    HW153662   8.562   4.432   2.613  1.3718  0.3393 -0.1616
17828SOL    HW253663   8.607   4.589   2.611 -0.1804  0.7911 -0.4436
17829SOL     OW53664   1.113   5.326   8.301  0.3258  0.3590 -0.2431
17829SOL    HW153665   1.027   5.376   8.312 -1.6845 -3.1637  1.8658
17829SOL    HW253666   1.097   5.241   8.250  2.5885 -0.3731  0.1258
17830SOL     OW53667   2.286   0.500   6.276  0.2725  0.4119 -0.1257
17830SOL    HW153668   2.379   0.477   6.245  0.4286  2.4680 -1.3416
17830SOL    HW253669   2.226   0.510   6.197 -0.8845 -0.3398  0.6306
17831SOL     OW53670   5.632   5.151   6.723  0.6169  0.3469  0.8620
17831SOL    HW153671   5.553   5.090   6.711  0.9200 -0.0871  1.0616
17831SOL    HW253672   5.716   5.101   6.702  0.8159  0.9240  0.2403
17832SOL     OW53673   8.034   0.396   3.503 -0.1539  0.2328 -0.4162
17832SOL    HW153674   8.128   0.370   3.525 -1.0002 -2.5759  0.2705
17832SOL    HW253675   8.002   0.343   3.425 -1.4187  0.6135 -0.1809
17833SOL     OW53676   5.263   3.961   8.740 -0.0729 -0.0073  0.0611
17833SOL    HW153677   5.202   3.882   8.738  0.1655 -0.2134  0.7310
17833SOL    HW253678   5.276   3.996   8.647 -1.5356  0.2893 -0.0565
17834SOL     OW53679   7.498   3.408   3.376  0.5837 -0.4350  0.2194
17834SOL    HW153680   7.491   3.370   3.284 -1.0604 -1.5873  0.7796
17834SOL    HW253681   7.491   3.333   3.443  1.2693  0.4386  1.3004
17835SOL     OW53682   8.164   2.141   2.384 -0.3613  0.1031  1.1003
17835SOL    HW153683   8.252   2.100   2.407 -0.7672  0.0651  2.7032
17835SOL    HW253684   8.111   2.077   2.329  1.3735  0.9232 -1.7570
17836SOL     OW53685   6.209   1.193   1.733  0.2274  0.3388  0.2590
17836SOL    HW153686   6.229   1.238   1.646  1.6420 -1.8415 -0.6237
17836SOL    HW253687   6.275   1.224   1.802 -1.0391  2.2454  0.6926
17837SOL     OW53688   6.757   3.340   3.135  0.1242 -0.4312 -0.3396
17837SOL    HW153689   6.820   3.320   3.059 -1.1560  1.4133 -1.9935
17837SOL    HW253690   6.663   3.327   3.104 -0.4306 -2.4230  1.8743
17838SOL     OW53691   6.499   8.183   4.696  0.3148 -0.1516  0.3739
17838SOL    HW153692   6.410   8.210   4.730  1.1115  2.3430  0.7004
17838SOL    HW253693   6.506   8.206   4.599  0.3662 -0.9981  0.1726
17839SOL     OW53694   4.134   5.199   7.476  0.0714 -0.3070 -0.4468
17839SOL    HW153695   4.153   5.255   7.557  1.1335  0.1210 -0.9815
17839SOL    HW253696   4.205   5.130   7.466 -0.7481 -1.2049 -0.3066
17840SOL     OW53697   4.056   7.587   3.146  0.4909  0.7456  0.0875
17840SOL    HW153698   4.031   7.535   3.064  1.3146 -0.0192  0.3130
17840SOL    HW253699   4.049   7.685   3.127  0.3055  0.5681 -0.7748
17841SOL     OW53700   1.235   4.158   7.001 -0.0476 -0.3145 -0.2463
17841SOL    HW153701   1.235   4.139   7.099 -0.6188 -2.1074 -0.5760
17841SOL    HW253702   1.146   4.135   6.962  0.0840  0.6416 -1.1529
17842SOL     OW53703   5.209   6.832   7.319  0.4236 -0.4359  0.3624
17842SOL    HW153704   5.284   6.868   7.262  1.8628 -0.5456  2.0883
17842SOL    HW253705   5.125   6.882   7.298  0.7645 -0.7513 -2.1114
17843SOL     OW53706   0.938   4.774   7.481  0.0690  0.8130  0.3257
17843SOL    HW153707   0.899   4.861   7.450  0.2566  0.5055 -0.8107
17843SOL    HW253708   1.037   4.783   7.489  0.1108  0.6557  0.0134
17844SOL     OW53709   7.328   4.330   8.799 -0.9238 -0.0646 -0.2665
17844SOL    HW153710   7.374   4.305   8.884  0.2048  1.4452 -0.3789
17844SOL    HW253711   7.321   4.250   8.740  2.1258 -0.3263 -0.4523
17845SOL     OW53712   7.786   8.037   1.579  0.1967 -0.9002 -0.4573
17845SOL    HW153713   7.846   7.977   1.632  0.1329 -0.1315  0.5066
17845SOL    HW253714   7.691   8.006   1.589  0.2568 -1.1577 -0.6759
17846SOL     OW53715   2.195   1.855   5.633  0.3029  0.4418 -0.5991
17846SOL    HW153716   2.137   1.907   5.696 -0.1214 -0.1873 -0.4520
17846SOL    HW253717   2.244   1.917   5.572  1.5597  1.1493  1.0454
17847SOL     OW53718   3.694   5.765   7.163  0.2447 -0.1433 -0.0451
17847SOL    HW153719   3.622   5.797   7.102 -0.0600 -1.5808 -0.4805
17847SOL    HW253720   3.773   5.737   7.110 -0.0738 -1.5371  0.1831
17848SOL     OW53721   1.564   7.842   8.176 -0.0684 -0.1280 -0.8782
17848SOL    HW153722   1.523   7.877   8.260  1.6245 -1.1991  0.4899
17848SOL    HW253723   1.664   7.850   8.182  0.3277 -3.2285 -1.2684
17849SOL     OW53724   8.636   1.760   1.221 -0.2700 -0.1162 -0.5897
17849SOL    HW153725   8.645   1.820   1.301 -0.3856 -0.7104 -0.1155
17849SOL    HW253726   8.640   1.664   1.251  0.0671 -0.3474 -1.3486
17850SOL     OW53727   6.488   0.448   7.026 -0.0775  0.2689 -0.0460
17850SOL    HW153728   6.561   0.395   6.983 -0.2005 -1.8035  2.1304
17850SOL    HW253729   6.527   0.515   7.089  0.0026 -1.3800  1.7201
17851SOL     OW53730   6.250   7.161   7.264 -0.0865 -0.3811 -0.1010
17851SOL    HW153731   6.224   7.133   7.356  1.2217 -2.3868 -0.2735
17851SOL    HW253732   6.291   7.083   7.216 -0.3652  0.7121 -2.2530
17852SOL     OW53733   5.425   0.389   8.410  0.3511  0.5275 -0.0660
17852SOL    HW153734   5.415   0.393   8.310  0.7781  1.2298 -0.0897
17852SOL    HW253735   5.486   0.314   8.434  1.1169  1.0213 -0.4160
17853SOL     OW53736   8.319   4.512   6.795 -0.5241  0.1741  0.1458
17853SOL    HW153737   8.405   4.555   6.821 -0.2074 -1.0880  1.2524
17853SOL    HW253738   8.271   4.571   6.730  0.9975  1.0599 -0.2158
17854SOL     OW53739   8.317   6.740   5.697  0.2636  0.5036  0.5725
17854SOL    HW153740   8.350   6.773   5.785  0.8191  0.5419  0.3514
17854SOL    HW253741   8.291   6.818   5.639 -3.2390  0.4602  1.8528
17855SOL     OW53742   1.501   8.444   7.178 -0.1803 -0.1535  0.1010
17855SOL    HW153743   1.477   8.540   7.166 -1.9246 -0.6772 -0.8348
17855SOL    HW253744   1.532   8.406   7.091 -0.2344 -0.6363  0.2876
17856SOL     OW53745   3.411   5.392   2.509  0.0236  0.1398 -0.4903
17856SOL    HW153746   3.499   5.437   2.496  1.1236 -1.5169  0.8379
17856SOL    HW253747   3.405   5.314   2.446  0.2779 -0.7839  0.6080
17857SOL     OW53748   5.236   8.831   4.956  0.3275 -0.8099  0.0329
17857SOL    HW153749   5.256   8.929   4.955 -2.8242 -0.0445 -0.3495
17857SOL    HW253750   5.315   8.780   4.923  1.2511  1.8111 -2.2069
17858SOL     OW53751   4.453   3.091   1.018  0.0710 -0.0198 -0.1599
17858SOL    HW153752   4.512   3.172   1.014 -0.3379  0.2668 -0.6107
17858SOL    HW253753   4.504   3.014   1.057  0.2707  0.6169  0.8796
17859SOL     OW53754   2.522   5.017   0.028  0.1211  0.3027  0.3739
17859SOL    HW153755   2.452   5.021  -0.043 -0.4146 -1.2868  0.7587
17859SOL    HW253756   2.490   4.960   0.104  2.3331 -1.8297 -0.1258
17860SOL     OW53757   4.812   6.175   5.181  0.4246  0.2206 -0.1688
17860SOL    HW153758   4.868   6.135   5.108  0.4259  0.1651 -0.1378
17860SOL    HW253759   4.715   6.158   5.162  0.4110  0.4366 -0.2932
17861SOL     OW53760   2.860   2.338   2.833  0.3432 -0.4794 -0.0942
17861SOL    HW153761   2.929   2.378   2.774 -0.4020  0.9725 -0.0116
17861SOL    HW253762   2.778   2.395   2.832  0.3107 -0.3923  2.3335
17862SOL     OW53763   4.660   3.773   1.189 -0.0911 -0.3401 -0.5445
17862SOL    HW153764   4.561   3.777   1.205 -0.3463 -1.5858 -1.6321
17862SOL    HW253765   4.708   3.776   1.276 -1.1363 -0.7315  0.0662
17863SOL     OW53766   3.769   0.452   6.736 -0.0520  0.3019  0.3271
17863SOL    HW153767   3.731   0.516   6.802 -0.6367 -1.7440  2.0549
17863SOL    HW253768   3.868   0.448   6.747  0.0805  1.4410 -0.3202
17864SOL     OW53769   2.151   8.468   1.733  0.1368 -0.3510  0.2132
17864SOL    HW153770   2.131   8.435   1.640 -2.2630  1.3866  0.0212
17864SOL    HW253771   2.084   8.430   1.796  1.2633 -0.8638  1.1296
17865SOL     OW53772   6.897   3.335   1.237 -0.0275 -0.5801 -0.4900
17865SOL    HW153773   6.881   3.261   1.302 -0.4425 -1.1912 -1.2636
17865SOL    HW253774   6.846   3.316   1.153 -0.8042  0.9972 -0.4063
17866SOL     OW53775   8.124   2.414   2.453  0.4351 -0.1761  0.4901
17866SOL    HW153776   8.128   2.329   2.400 -0.1939  0.4083 -0.5227
17866SOL    HW253777   8.212   2.461   2.448  0.4940 -0.3097  0.2714
17867SOL     OW53778   5.622   4.388   2.454  0.1871  0.4016 -0.7302
17867SOL    HW153779   5.626   4.395   2.554  0.5628  0.3573 -0.7411
17867SOL    HW253780   5.604   4.293   2.429  0.9923  0.2366 -0.7211
17868SOL     OW53781   3.622   8.802   1.066 -0.0863 -0.4897 -0.1619
17868SOL    HW153782   3.524   8.811   1.080  0.3521  0.3033  3.4782
17868SOL    HW253783   3.659   8.888   1.030 -0.6879 -0.7953 -1.5472
17869SOL     OW53784   2.805   7.030   8.058 -0.4692  0.2245 -0.2434
17869SOL    HW153785   2.760   7.109   8.099 -0.7191 -0.2368  0.3875
17869SOL    HW253786   2.872   7.061   7.991 -0.3484  0.9833  0.2179
17870SOL     OW53787   2.113   4.793   6.278  0.6715 -0.2147 -0.2606
17870SOL    HW153788   2.106   4.815   6.375  1.3137 -0.2755 -0.1904
17870SOL    HW253789   2.026   4.810   6.232  0.0059 -1.3040  0.5447
17871SOL     OW53790   6.900   8.646   1.676 -0.2448  0.2695  0.5365
17871SOL    HW153791   6.804   8.625   1.696 -0.1861 -0.8636 -0.2838
17871SOL    HW253792   6.915   8.642   1.578  0.4272  1.5030  0.5648
17872SOL     OW53793   2.161   0.822   2.098 -0.1455 -0.0069  0.4515
17872SOL    HW153794   2.128   0.837   2.005  0.3858 -0.8723  0.1162
17872SOL    HW253795   2.240   0.882   2.114 -0.4467  0.3920  0.4699
17873SOL     OW53796   0.809   8.148   6.137 -0.2074 -0.6100 -1.0362
17873SOL    HW153797   0.752   8.220   6.098  0.9756  0.5176 -0.7361
17873SOL    HW253798   0.878   8.120   6.070  1.7488  1.2429  0.0714
17874SOL     OW53799   3.424   5.224   5.734 -0.6849 -0.4920 -0.5132
17874SOL    HW153800   3.522   5.239   5.746 -1.0490  0.4221  1.8609
17874SOL    HW253801   3.393   5.271   5.651  0.9457 -1.2492 -1.5954
17875SOL     OW53802   5.140   8.174   7.007 -0.2075 -0.1601 -0.3979
17875SOL    HW153803   5.133   8.238   7.083 -0.8510 -0.4732 -0.1894
17875SOL    HW253804   5.233   8.175   6.971  0.1734 -0.2139  0.5690
17876SOL     OW53805   3.725   8.267   2.134  0.1743  0.0233  0.2047
17876SOL    HW153806   3.718   8.284   2.233 -0.2301 -0.8259  0.3281
17876SOL    HW253807   3.650   8.208   2.105 -1.0662  2.1126 -1.0595
17877SOL     OW53808   7.883   3.263   2.244  0.3109  0.2348  0.4958
17877SOL    HW153809   7.800   3.242   2.193  1.3013 -1.6915 -0.4545
17877SOL    HW253810   7.898   3.362   2.244 -0.1838  0.4100 -2.3106
17878SOL     OW53811   7.539   1.302   4.099 -0.3428 -0.0672 -0.0737
17878SOL    HW153812   7.459   1.265   4.145  0.1367 -0.6689  0.2866
17878SOL    HW253813   7.595   1.228   4.064 -0.0737  0.3559 -0.5540
17879SOL     OW53814   6.216   3.584   3.977  0.5621 -0.4024 -0.1623
17879SOL    HW153815   6.128   3.551   4.011  0.7622 -1.1920 -0.3868
17879SOL    HW253816   6.258   3.514   3.919  1.5753 -0.2461  0.3520
17880SOL     OW53817   7.380   5.494   6.168 -0.2643 -0.2963 -0.1781
17880SOL    HW153818   7.388   5.431   6.090 -0.2788 -0.1759 -0.2764
17880SOL    HW253819   7.416   5.450   6.250 -0.6904 -0.6029 -0.1518
17881SOL     OW53820   7.411   2.760   3.108  0.0998 -0.0689  0.4546
17881SOL    HW153821   7.419   2.662   3.124  2.0067  0.0103  0.1915
17881SOL    HW253822   7.334   2.777   3.047 -1.0694 -1.2502  1.5167
17882SOL     OW53823   7.953   8.468   2.998  0.3740  0.3672 -0.1843
17882SOL    HW153824   7.889   8.543   2.978  0.8663  0.8184 -0.0837
17882SOL    HW253825   8.019   8.461   2.923 -0.0467 -0.3818 -0.4972
17883SOL     OW53826   0.167   3.401   2.592  0.2342 -0.0919  0.4934
17883SOL    HW153827   0.265   3.398   2.573  0.2304  1.1415  0.2152
17883SOL    HW253828   0.129   3.309   2.582  1.3176 -0.5457  0.3860
17884SOL     OW53829   3.796   8.030   1.678 -0.0882  0.0750  0.9134
17884SOL    HW153830   3.731   8.084   1.732  0.1114  0.0527  1.1764
17884SOL    HW253831   3.797   8.064   1.584  0.3462  0.8124  1.1749
17885SOL     OW53832   0.311   5.199   3.318 -0.4181  0.3008 -0.3100
17885SOL    HW153833   0.275   5.287   3.286 -1.0112 -0.2150 -1.0951
17885SOL    HW253834   0.286   5.128   3.253 -0.0438 -0.4718  0.3849
17886SOL     OW53835   3.876   7.303   0.482  0.3032 -0.1244  0.1842
17886SOL    HW153836   3.902   7.349   0.397 -1.5600 -0.4013 -0.5611
17886SOL    HW253837   3.940   7.331   0.554  1.0240  1.2906 -0.9313
17887SOL     OW53838   1.529   2.960   1.521 -0.1588  0.0499 -0.3950
17887SOL    HW153839   1.625   2.983   1.511 -0.4356  0.5902 -2.1426
17887SOL    HW253840   1.508   2.944   1.617  1.5714  0.3253  0.0537
17888SOL     OW53841   4.056   7.962   4.590  0.3668  0.2491  0.0854
17888SOL    HW153842   4.013   7.941   4.502  1.7329  2.2900 -1.1297
17888SOL    HW253843   4.105   7.881   4.623  0.0020 -0.4936 -1.1177
17889SOL     OW53844   2.736   4.654   3.156 -0.2353  0.1950  0.0001
17889SOL    HW153845   2.814   4.604   3.118 -0.0019 -0.4592  1.2770
17889SOL    HW253846   2.755   4.752   3.151  0.5485  0.0574  0.0173
17890SOL     OW53847   2.565   5.140   4.779  0.0747 -0.1416 -0.4164
17890SOL    HW153848   2.471   5.111   4.762 -0.0529 -0.3317  0.5646
17890SOL    HW253849   2.596   5.196   4.702 -1.2606  0.9294 -0.2252
17891SOL     OW53850   0.073   6.621   8.384 -0.3885  0.5273  0.6689
17891SOL    HW153851   0.164   6.582   8.368 -0.7766  0.0817 -0.4621
17891SOL    HW253852   0.012   6.598   8.309 -2.0789 -1.0027  2.3922
17892SOL     OW53853   5.697   2.478   3.802  0.0547 -0.5445 -0.5794
17892SOL    HW153854   5.664   2.452   3.893  0.3352 -0.4550 -0.4513
17892SOL    HW253855   5.764   2.411   3.770  3.8940  1.9688  1.4718
17893SOL     OW53856   3.973   3.167   1.006 -0.2697 -0.2791  0.2642
17893SOL    HW153857   3.929   3.077   0.999  1.2965 -1.2132  1.5785
17893SOL    HW253858   3.924   3.232   0.948 -1.0559 -2.1195 -1.2880
17894SOL     OW53859   3.937   4.661   7.279  0.1931  0.1659 -0.3961
17894SOL    HW153860   3.938   4.630   7.184  0.7570 -0.1965 -0.2763
17894SOL    HW253861   3.933   4.581   7.339 -0.2669  0.3968 -0.1112
17895SOL     OW53862   8.694   7.261   1.840  0.1712  0.2108  0.2281
17895SOL    HW153863   8.786   7.243   1.873  0.2385  0.6700  0.2991
17895SOL    HW253864   8.635   7.286   1.917  0.2112  0.8095  0.0697
17896SOL     OW53865   1.294   5.107   8.539 -0.3730  0.3499  0.3975
17896SOL    HW153866   1.197   5.110   8.561 -0.8360  0.8644 -1.4871
17896SOL    HW253867   1.344   5.062   8.613 -2.2339 -1.3388  0.7194
17897SOL     OW53868   5.731   7.997   0.677  0.1490 -0.8337 -0.1226
17897SOL    HW153869   5.662   8.062   0.645  0.5449  0.2038  1.0607
17897SOL    HW253870   5.688   7.929   0.736  0.4284  1.4220  2.9399
17898SOL     OW53871   6.643   6.417   6.071  0.3697  0.4671 -0.1611
17898SOL    HW153872   6.585   6.380   6.143  1.0741  0.2942  0.3328
17898SOL    HW253873   6.722   6.356   6.058  1.3448  1.5778  0.3893
17899SOL     OW53874   0.363   8.274   1.503 -0.0420  0.3330 -0.0037
17899SOL    HW153875   0.383   8.272   1.601 -0.3176  1.9174  0.1186
17899SOL    HW253876   0.276   8.321   1.488  0.5881  1.1995 -1.0682
17900SOL     OW53877   2.211   2.591   3.397 -0.1958  0.0686  0.1154
17900SOL    HW153878   2.138   2.652   3.429 -1.0237 -0.1497 -1.2779
17900SOL    HW253879   2.289   2.597   3.460 -0.9740  1.1479  1.0273
17901SOL     OW53880   0.568   6.563   5.452  0.0607 -0.5959 -0.0282
17901SOL    HW153881   0.606   6.576   5.360  2.2566 -2.6931  0.4957
17901SOL    HW253882   0.642   6.559   5.519 -1.5214  2.0212  2.1091
17902SOL     OW53883   5.850   2.838   1.748  0.8493 -0.2512  0.1613
17902SOL    HW153884   5.948   2.824   1.763  0.5823 -0.4805  1.8509
17902SOL    HW253885   5.829   2.821   1.651  2.4273 -0.3961 -0.1915
17903SOL     OW53886   6.849   4.696   3.069 -0.1626 -0.4760 -0.0137
17903SOL    HW153887   6.807   4.682   2.979 -0.3435 -2.2641  0.3064
17903SOL    HW253888   6.947   4.710   3.058  0.0600 -2.1432 -0.4403
17904SOL     OW53889   3.587   1.953   7.544 -0.2727 -0.3711  0.3199
17904SOL    HW153890   3.632   1.864   7.536 -0.2655 -0.2238 -2.1566
17904SOL    HW253891   3.493   1.946   7.512 -0.0190  0.6689 -0.7306
17905SOL     OW53892   2.790   8.574   7.341 -0.1562  0.2107  0.0904
17905SOL    HW153893   2.879   8.580   7.295 -0.6993 -0.2163 -1.0550
17905SOL    HW253894   2.798   8.513   7.420  0.6465  0.4557  0.2096
17906SOL     OW53895   0.085   1.245   0.189 -0.2042 -0.0912  0.4624
17906SOL    HW153896   0.182   1.226   0.201  0.1130  0.4221 -1.0169
17906SOL    HW253897   0.071   1.344   0.188 -0.3529 -0.0857 -1.7102
17907SOL     OW53898   4.635   4.923   7.199 -0.1940 -0.3831  0.4865
17907SOL    HW153899   4.651   4.951   7.104 -0.6453 -0.0343  0.5110
17907SOL    HW253900   4.674   4.990   7.261 -0.1084 -0.4890  0.5472
17908SOL     OW53901   0.102   6.808   1.431  0.0761 -0.2451 -0.5488
17908SOL    HW153902   0.121   6.769   1.521  1.4459 -0.8399 -1.0560
17908SOL    HW253903   0.094   6.907   1.438  0.8288 -0.2228  0.1289
17909SOL     OW53904   1.090   0.542   2.089  0.1289 -0.2261 -0.3184
17909SOL    HW153905   1.110   0.447   2.067  1.3795  0.3605 -1.8213
17909SOL    HW253906   0.991   0.552   2.103 -0.1804 -1.4927 -1.4019
17910SOL     OW53907   3.383   6.235   4.402  0.5132  0.0698  0.0919
17910SOL    HW153908   3.436   6.150   4.397  1.1949  0.4892  0.1275
17910SOL    HW253909   3.421   6.302   4.339 -1.6360 -0.5029 -1.9848
17911SOL     OW53910   8.167   3.047   7.867  0.0890  0.2199 -0.3654
17911SOL    HW153911   8.192   3.035   7.771 -0.1197 -0.3741 -0.3505
17911SOL    HW253912   8.097   3.118   7.875 -1.7257 -1.4061 -0.9449
17912SOL     OW53913   3.633   0.242   1.600  0.1992  0.3724  0.1620
17912SOL    HW153914   3.702   0.182   1.561 -0.1961 -0.7459  1.1280
17912SOL    HW253915   3.643   0.334   1.561  1.1549 -0.1717 -0.9342
17913SOL     OW53916   1.445   4.695   6.171  0.4721  0.2306 -0.0311
17913SOL    HW153917   1.401   4.626   6.228  0.8550  0.1099  0.1221
17913SOL    HW253918   1.377   4.760   6.139  0.3131  0.5466  0.9178
17914SOL     OW53919   1.703   4.072   3.065 -0.1123  0.3259  0.2244
17914SOL    HW153920   1.712   4.121   3.151 -0.2901  0.3747  0.2162
17914SOL    HW253921   1.794   4.046   3.031  0.0524  1.4414 -0.2348
17915SOL     OW53922   6.121   2.832   1.728  0.2257  0.4895  0.1820
17915SOL    HW153923   6.126   2.924   1.691  0.6939  0.4138  0.0471
17915SOL    HW253924   6.188   2.822   1.802  0.3950  0.1687 -0.0121
17916SOL     OW53925   7.356   6.410   3.688 -0.0503  0.1797  0.5696
17916SOL    HW153926   7.379   6.322   3.728 -0.0037 -0.1593 -0.1864
17916SOL    HW253927   7.280   6.451   3.739 -0.3097 -0.4573  0.7052
17917SOL     OW53928   0.049   4.151   3.405 -0.4992 -0.0979 -0.2164
17917SOL    HW153929   0.085   4.125   3.494 -0.3491 -2.1494 -0.8319
17917SOL    HW253930   0.017   4.069   3.357  2.3570  0.4590 -3.3699
17918SOL     OW53931   7.265   3.950   7.853 -0.4729  0.5382  0.4146
17918SOL    HW153932   7.240   3.998   7.770  0.5244 -0.3316 -0.4160
17918SOL    HW253933   7.363   3.959   7.869 -0.8302  1.8230  2.2588
17919SOL     OW53934   4.850   7.401   2.672 -0.2785 -0.6104  0.0721
17919SOL    HW153935   4.766   7.419   2.724  1.0812 -1.0206  2.5706
17919SOL    HW253936   4.830   7.337   2.598 -1.7884 -2.6419  2.0811
17920SOL     OW53937   1.512   2.536   1.971  0.0862 -0.2129  0.2344
17920SOL    HW153938   1.459   2.490   2.043  0.3162 -1.2817 -0.2538
17920SOL    HW253939   1.465   2.526   1.884  0.5456 -0.2272 -0.0135
17921SOL     OW53940   0.254   3.837   7.200  0.2350 -0.0327 -0.1560
17921SOL    HW153941   0.311   3.872   7.275  1.2118 -0.9908 -0.4183
17921SOL    HW253942   0.158   3.853   7.221  0.5550  1.1369  0.5629
17922SOL     OW53943   7.397   8.687   8.604 -0.0120  0.6756  0.5326
17922SOL    HW153944   7.393   8.657   8.509  2.3807 -1.1552  0.8943
17922SOL    HW253945   7.305   8.694   8.641 -0.9534 -2.8954 -0.7254
17923SOL     OW53946   0.903   2.068   4.614 -0.2109 -0.1681 -0.4895
17923SOL    HW153947   1.001   2.062   4.591  0.3877  3.1715  0.6690
17923SOL    HW253948   0.849   2.055   4.531  1.2029 -1.4578 -1.2654
17924SOL     OW53949   0.367   5.925   3.246  0.1227 -0.3408 -0.0807
17924SOL    HW153950   0.449   5.977   3.268  1.7549 -2.1594 -1.4676
17924SOL    HW253951   0.348   5.859   3.319  0.6481 -0.7668 -0.3266
17925SOL     OW53952   6.478   1.121   4.624  0.2447  0.8223 -0.0625
17925SOL    HW153953   6.533   1.134   4.541 -0.4603 -0.3270 -0.7409
17925SOL    HW253954   6.450   1.210   4.660  1.1075  1.3606 -0.6843
17926SOL     OW53955   8.230   2.661   2.075 -0.2671  0.3356  0.0375
17926SOL    HW153956   8.205   2.721   1.999 -2.2911  0.0259  0.4102
17926SOL    HW253957   8.244   2.717   2.157  1.1495  0.5905 -0.3524
17927SOL     OW53958   5.938   6.295   5.204  0.3428  0.5292  0.1696
17927SOL    HW153959   5.914   6.372   5.263 -1.3488  0.4926 -0.4307
17927SOL    HW253960   5.944   6.212   5.258  1.4544  0.9302  0.7003
17928SOL     OW53961   8.339   2.698   2.883 -0.0289 -0.4839 -0.1506
17928SOL    HW153962   8.305   2.655   2.967  2.3244 -0.9932  0.5942
17928SOL    HW253963   8.313   2.642   2.804 -0.5139 -1.0897  0.4277
17929SOL     OW53964   8.300   5.989   0.599  0.3987  0.1096  0.0851
17929SOL    HW153965   8.284   6.046   0.680  0.9417  0.8771 -0.3395
17929SOL    HW253966   8.336   5.900   0.627  0.5074  0.3433  0.6897
17930SOL     OW53967   0.963   6.118   6.250 -0.3925 -0.3065  0.1751
17930SOL    HW153968   1.030   6.163   6.191 -1.1977 -0.1337 -0.6330
17930SOL    HW253969   0.873   6.157   6.234 -1.1478 -2.2421 -0.6290
17931SOL     OW53970   5.372   2.675   5.281  0.3113 -0.1158 -0.0219
17931SOL    HW153971   5.327   2.712   5.362  0.2923  0.2993 -0.2202
17931SOL    HW253972   5.452   2.730   5.259 -0.0966  0.2189 -0.7077
17932SOL     OW53973   3.768   0.200   3.528  0.8662 -0.1954 -0.2464
17932SOL    HW153974   3.763   0.253   3.444  1.8542 -1.7486 -1.3284
17932SOL    HW253975   3.861   0.201   3.564  1.2697 -2.2927 -1.0814
17933SOL     OW53976   5.443   8.028   0.111 -0.3159 -0.0158  0.1323
17933SOL    HW153977   5.529   8.074   0.135 -0.2692  0.3993 -0.7641
17933SOL    HW253978   5.462   7.935   0.081 -0.0967  0.2549 -0.6071
17934SOL     OW53979   2.669   1.418   1.764 -0.5841  0.0988  0.5747
17934SOL    HW153980   2.729   1.473   1.705 -0.0869 -0.5528  0.4539
17934SOL    HW253981   2.722   1.343   1.804 -1.4694 -0.9130 -0.0824
17935SOL     OW53982   6.743   8.105   2.485  0.1804 -0.4649 -0.6706
17935SOL    HW153983   6.676   8.169   2.524 -0.0637 -1.2500  0.2307
17935SOL    HW253984   6.808   8.156   2.429  0.7301  0.7824  0.9895
17936SOL     OW53985   5.521   5.753   6.307 -0.0210 -0.0061  0.4622
17936SOL    HW153986   5.542   5.656   6.294 -0.4773  0.0053 -0.4382
17936SOL    HW253987   5.601   5.807   6.283 -0.7605  0.0002 -2.3153
17937SOL     OW53988   8.853   1.186   1.964  0.0744  0.3838  0.0033
17937SOL    HW153989   8.764   1.210   1.925 -0.9381 -1.1936  1.2025
17937SOL    HW253990   8.846   1.098   2.011  1.6762  1.2813  2.0811
17938SOL     OW53991   5.397   0.158   1.981 -0.3153 -0.1313 -0.1653
17938SOL    HW153992   5.397   0.083   1.915  1.1044 -1.6616  1.4641
17938SOL    HW253993   5.466   0.226   1.955 -0.2890 -0.3333 -0.6312
17939SOL     OW53994   3.206   7.429   2.692 -0.1718  1.0226 -0.0699
17939SOL    HW153995   3.277   7.404   2.625  2.7964 -0.0376  3.1468
17939SOL    HW253996   3.221   7.523   2.721 -0.6767  1.0844 -0.0100
17940SOL     OW53997   3.116   3.400   2.798  0.6716 -0.0507 -0.1252
17940SOL    HW153998   3.178   3.338   2.846  1.6305  0.3453 -0.8130
17940SOL    HW253999   3.055   3.347   2.739  1.3490 -0.3597 -0.5584
17941SOL     OW54000   5.915   5.429   8.694 -0.8698 -0.2215  0.3145
17941SOL    HW154001   5.883   5.336   8.710 -0.0296 -0.7069 -0.6799
17941SOL    HW254002   5.995   5.427   8.633 -1.3548  1.1956 -0.4310
17942SOL     OW54003   0.929   3.361   4.164 -0.4051 -0.1418 -0.1560
17942SOL    HW154004   0.955   3.303   4.087 -1.7134  0.2177 -0.9074
17942SOL    HW254005   0.955   3.456   4.145 -1.1471  0.0244 -0.3880
17943SOL     OW54006   3.090   7.489   5.068 -0.6560 -0.4418 -0.0357
17943SOL    HW154007   3.133   7.579   5.082  0.4676 -0.8986 -0.4083
17943SOL    HW254008   2.997   7.502   5.035 -1.3066  0.6011  2.0273
17944SOL     OW54009   3.084   0.823   5.322 -0.0454 -0.4227  0.0160
17944SOL    HW154010   3.000   0.863   5.360 -0.2021 -0.7620  0.0409
17944SOL    HW254011   3.144   0.796   5.397  0.1159 -0.1117 -0.0044
17945SOL     OW54012   7.521   3.538   2.559 -0.5836  0.4461 -0.5718
17945SOL    HW154013   7.614   3.564   2.583 -0.8211  0.8403 -0.0603
17945SOL    HW254014   7.487   3.470   2.624 -1.1588  1.3753  0.1316
17946SOL     OW54015   2.421   5.289   4.417 -0.3997 -0.3804  0.0098
17946SOL    HW154016   2.337   5.326   4.455 -0.9716 -0.2445 -1.3514
17946SOL    HW254017   2.489   5.362   4.408 -0.8880 -0.0350 -0.9275
17947SOL     OW54018   7.671   6.057   1.956  0.1663  0.1960 -0.0117
17947SOL    HW154019   7.636   6.069   2.049 -1.3728  0.5269 -0.5943
17947SOL    HW254020   7.770   6.049   1.958  0.0944 -0.8240  1.7542
17948SOL     OW54021   3.511   5.736   8.441 -0.6815 -0.0156 -0.6587
17948SOL    HW154022   3.532   5.825   8.400 -0.7058  0.2428 -0.1136
17948SOL    HW254023   3.463   5.679   8.374 -0.9987  0.5153 -0.8884
17949SOL     OW54024   8.359   3.990   3.402 -0.7773  0.3519  0.0652
17949SOL    HW154025   8.292   3.931   3.448 -1.4047  0.5213 -0.6126
17949SOL    HW254026   8.371   4.074   3.454  0.1345 -0.3547  1.0484
17950SOL     OW54027   6.823   4.069   5.038 -0.5016  0.0703  0.4644
17950SOL    HW154028   6.847   4.166   5.051 -0.4506  0.0512  0.5121
17950SOL    HW254029   6.884   4.012   5.092 -0.2560 -0.0122  0.1024
17951SOL     OW54030   6.455   7.725   4.007  0.6031 -0.0117 -0.2713
17951SOL    HW154031   6.487   7.727   3.912  1.5992 -0.7374  0.0294
17951SOL    HW254032   6.387   7.652   4.017  0.4317  0.1224 -0.4421
17952SOL     OW54033   8.429   0.928   2.493  0.2429 -0.2054 -0.3554
17952SOL    HW154034   8.518   0.975   2.492  0.5419 -0.7704 -1.6347
17952SOL    HW254035   8.394   0.928   2.587  0.6564  1.7398 -0.1516
17953SOL     OW54036   7.385   0.885   5.587 -1.0266  0.9678 -0.1460
17953SOL    HW154037   7.484   0.877   5.602 -0.9078  1.4055 -0.6803
17953SOL    HW254038   7.338   0.887   5.675 -0.6257 -0.0196  0.1047
17954SOL     OW54039   3.187   1.077   1.274 -0.1559  0.2809  0.2103
17954SOL    HW154040   3.159   1.027   1.355  0.7167  1.8379  1.5317
17954SOL    HW254041   3.267   1.033   1.233 -1.1702 -1.0517 -0.4062
17955SOL     OW54042   8.063   6.568   8.032  0.2898 -0.4462 -0.9409
17955SOL    HW154043   8.074   6.655   7.984 -2.4192  0.4064 -0.2267
17955SOL    HW254044   8.048   6.584   8.129 -2.1976 -1.4519 -1.0609
17956SOL     OW54045   8.183   1.408   0.939  1.0667 -0.0032 -0.1019
17956SOL    HW154046   8.157   1.449   0.852  0.5956  0.7861  0.4045
17956SOL    HW254047   8.115   1.338   0.964  1.0954 -0.0909 -0.2638
17957SOL     OW54048   2.816   2.516   0.710  0.0138 -0.1782  0.3047
17957SOL    HW154049   2.830   2.577   0.788  0.2124 -1.9765  1.7225
17957SOL    HW254050   2.718   2.495   0.701 -0.3506  1.8218 -1.4198
17958SOL     OW54051   6.465   2.581   5.308  0.0662 -0.0984  0.1162
17958SOL    HW154052   6.475   2.680   5.320  0.2675 -0.1880  0.7362
17958SOL    HW254053   6.423   2.542   5.390 -1.0208 -0.3849 -0.5581
17959SOL     OW54054   4.685   6.084   7.584 -0.1826 -0.0323 -0.1768
17959SOL    HW154055   4.652   6.065   7.492 -2.9680  0.9678  0.5224
17959SOL    HW254056   4.704   5.998   7.631  1.2723 -0.5540 -1.6047
17960SOL     OW54057   0.997   4.638   5.161 -0.1720  0.0262 -0.1293
17960SOL    HW154058   0.932   4.563   5.171 -1.2780  0.9255 -0.3603
17960SOL    HW254059   0.992   4.697   5.241 -1.3470  1.3685 -1.1324
17961SOL     OW54060   3.165   4.525   2.074  0.0860  0.5364  0.4619
17961SOL    HW154061   3.201   4.613   2.044 -0.1665  0.2979 -0.5792
17961SOL    HW254062   3.241   4.464   2.097  0.5698 -0.4841 -3.1786
17962SOL     OW54063   2.263   6.406   8.002  0.4789  0.8427  0.0929
17962SOL    HW154064   2.208   6.458   8.068 -1.4216  1.3232 -1.7645
17962SOL    HW254065   2.274   6.460   7.918  3.1143  0.3789  0.0567
17963SOL     OW54066   6.724   6.489   6.999  0.0542 -0.1032 -0.1842
17963SOL    HW154067   6.782   6.423   7.048  0.7007 -0.1076 -0.9308
17963SOL    HW254068   6.779   6.570   6.976 -0.4779  0.2749 -0.1345
17964SOL     OW54069   2.125   5.800   7.999  0.9637  0.1143  0.3261
17964SOL    HW154070   2.087   5.787   7.907  0.5694 -0.9501  0.6171
17964SOL    HW254071   2.051   5.818   8.064  1.1263 -0.1646  0.5967
17965SOL     OW54072   1.488   2.369   4.765  0.3965  0.2529  0.0571
17965SOL    HW154073   1.521   2.403   4.853 -2.5174 -1.0474  1.7912
17965SOL    HW254074   1.388   2.372   4.763  0.2653 -2.0496 -2.2452
17966SOL     OW54075   5.546   6.561   4.104  0.5359  0.2536  0.0069
17966SOL    HW154076   5.477   6.617   4.058 -1.2291 -1.0020  1.0300
17966SOL    HW254077   5.589   6.615   4.176  0.2713  0.8987 -0.3083
17967SOL     OW54078   1.896   5.268   4.974 -0.0310 -0.1710 -0.2631
17967SOL    HW154079   1.846   5.190   5.012  1.4341 -0.3033  1.5777
17967SOL    HW254080   1.954   5.237   4.898 -2.6026 -0.0132 -2.4081
17968SOL     OW54081   6.440   0.573   4.472 -0.2036  0.1608  0.2336
17968SOL    HW154082   6.349   0.574   4.514 -1.5942  1.4354 -2.5574
17968SOL    HW254083   6.437   0.519   4.388  1.5760  0.4541 -0.0638
17969SOL     OW54084   0.196   2.532   3.646  0.1878 -0.1483 -0.5195
17969SOL    HW154085   0.271   2.466   3.637 -0.9298 -1.5444 -0.1353
17969SOL    HW254086   0.109   2.485   3.631 -0.5713  2.0445 -4.2339
17970SOL     OW54087   5.182   5.652   0.365 -0.2703  0.3363 -0.6442
17970SOL    HW154088   5.158   5.614   0.454 -0.7564  3.6019  0.7858
17970SOL    HW254089   5.232   5.584   0.311  0.6616 -1.5447  2.3617
17971SOL     OW54090   2.169   7.222   4.793  0.9244  0.2348 -0.0283
17971SOL    HW154091   2.090   7.257   4.741  1.6598  0.5604 -0.9531
17971SOL    HW254092   2.146   7.220   4.890 -0.1916  0.4177 -0.2728
17972SOL     OW54093   7.484   5.784   3.869  0.1628  0.9403  0.1212
17972SOL    HW154094   7.538   5.812   3.789  0.1513  0.4490 -0.0568
17972SOL    HW254095   7.399   5.836   3.871 -0.7964 -0.4832 -1.3418
17973SOL     OW54096   6.412   2.876   5.021  0.6498  0.7782  0.5712
17973SOL    HW154097   6.473   2.825   4.960 -0.4940 -1.2339  1.0307
17973SOL    HW254098   6.395   2.967   4.982  0.3985 -0.2357 -1.8737
17974SOL     OW54099   3.330   3.393   6.543 -0.2516 -0.3056 -0.5467
17974SOL    HW154100   3.319   3.486   6.579  0.7700  0.4236 -1.9755
17974SOL    HW254101   3.269   3.330   6.591 -1.6895  1.2790 -0.2084
17975SOL     OW54102   8.722   3.617   7.591  0.1238 -0.0136  0.3261
17975SOL    HW154103   8.743   3.533   7.641  1.1944  1.2902  2.2367
17975SOL    HW254104   8.732   3.602   7.493  2.0539 -1.6665  0.7089
17976SOL     OW54105   2.206   4.707   1.638 -0.4087 -0.4296  0.3410
17976SOL    HW154106   2.167   4.616   1.645 -1.4941  0.0549  0.8890
17976SOL    HW254107   2.163   4.756   1.562 -0.7751  0.0649  0.8621
17977SOL     OW54108   4.621   5.394   7.228  0.0226  0.0813 -0.9955
17977SOL    HW154109   4.696   5.446   7.187 -1.0246  2.1309 -0.4148
17977SOL    HW254110   4.581   5.446   7.303 -1.6676 -1.1890 -0.9557
17978SOL     OW54111   2.218   2.802   2.908 -0.9542 -0.5843  0.0502
17978SOL    HW154112   2.241   2.816   3.005  1.2540  0.9285 -0.6066
17978SOL    HW254113   2.151   2.871   2.880 -1.7523 -1.1533  0.5367
17979SOL     OW54114   4.758   0.828   0.254  0.4837 -0.1722  0.5489
17979SOL    HW154115   4.844   0.783   0.278  1.4974  0.6292 -1.3707
17979SOL    HW254116   4.753   0.839   0.154  0.1891  3.6447  0.8423
17980SOL     OW54117   4.343   8.293   4.441  0.0316  0.2334  0.6461
17980SOL    HW154118   4.398   8.299   4.525 -0.5053 -2.1810  1.2454
17980SOL    HW254119   4.404   8.286   4.362  0.6311 -0.8905  1.1741
17981SOL     OW54120   7.289   1.778   4.885 -0.1043  0.2630 -0.0391
17981SOL    HW154121   7.368   1.818   4.933 -0.7869  1.9922 -0.3093
17981SOL    HW254122   7.316   1.689   4.848  1.5685  0.5619  0.3363
17982SOL     OW54123   0.907   4.149   5.092  0.3996 -0.3336  0.1951
17982SOL    HW154124   0.857   4.117   5.011 -2.0174 -0.1609  1.5203
17982SOL    HW254125   0.903   4.079   5.163 -1.3382  1.1719  1.6639
17983SOL     OW54126   1.229   1.393   1.545  0.1767  0.0082 -0.1156
17983SOL    HW154127   1.144   1.342   1.549 -0.1275  0.4493 -0.6674
17983SOL    HW254128   1.305   1.331   1.523 -0.2275 -0.1772 -1.0527
17984SOL     OW54129   8.076   7.346   2.364  0.7693  0.4597  0.1406
17984SOL    HW154130   8.159   7.347   2.309  0.0242  0.8717 -1.0188
17984SOL    HW254131   8.015   7.420   2.334 -0.0401  0.1335  0.9298
17985SOL     OW54132   1.491   5.669   6.545  0.4233 -0.0845 -0.2791
17985SOL    HW154133   1.394   5.652   6.528  0.0560  0.7342  0.8709
17985SOL    HW254134   1.544   5.588   6.522 -0.6701 -0.9503  0.1771
17986SOL     OW54135   3.627   0.535   4.964  0.0496 -0.4931 -0.7773
17986SOL    HW154136   3.695   0.605   4.985  0.4185 -0.8754 -0.7111
17986SOL    HW254137   3.672   0.452   4.933 -0.3773 -0.7976 -0.5953
17987SOL     OW54138   8.441   3.321   4.941  0.5228  0.0538  0.2180
17987SOL    HW154139   8.414   3.301   4.847 -0.1791  1.1065  0.1787
17987SOL    HW254140   8.538   3.298   4.954  1.3043  2.0371 -1.4605
17988SOL     OW54141   7.816   2.580   4.474  0.3402 -0.6955 -0.1163
17988SOL    HW154142   7.797   2.494   4.521  0.7011 -1.6436 -1.6113
17988SOL    HW254143   7.850   2.560   4.382 -0.0656  1.0661 -0.6852
17989SOL     OW54144   7.062   3.471   7.334  0.1038  0.0081 -0.5612
17989SOL    HW154145   7.133   3.401   7.346  0.2438  0.3342  0.6293
17989SOL    HW254146   6.974   3.427   7.319  0.2707 -0.4256 -0.2941
17990SOL     OW54147   1.029   0.200   6.015 -0.0553  0.2286 -0.0024
17990SOL    HW154148   1.015   0.298   6.029 -0.4172  0.1106  0.4842
17990SOL    HW254149   1.091   0.165   6.085 -0.5915 -0.0495  0.3435
17991SOL     OW54150   5.323   6.959   4.747  0.7511 -0.4970  0.1806
17991SOL    HW154151   5.323   6.927   4.652 -2.0413 -1.8338  0.5350
17991SOL    HW254152   5.268   7.042   4.755  3.0200  1.0914  0.3044
17992SOL     OW54153   0.191   4.317   0.502  0.5510  0.2561 -0.1021
17992SOL    HW154154   0.222   4.376   0.427  1.8350 -1.1361 -0.7241
17992SOL    HW254155   0.092   4.326   0.513  0.2591  0.1944 -2.2578
17993SOL     OW54156   8.167   3.327   6.674  0.2918 -0.4434 -0.3547
17993SOL    HW154157   8.193   3.310   6.579  0.2748  4.0775 -1.4330
17993SOL    HW254158   8.243   3.305   6.735  1.2239 -1.1215 -1.7291
17994SOL     OW54159   7.369   4.568   0.740 -0.3546 -0.0646 -1.1029
17994SOL    HW154160   7.275   4.535   0.751 -0.5062  0.2087 -1.5809
17994SOL    HW254161   7.421   4.501   0.688 -0.4659  0.1061 -1.4322
17995SOL     OW54162   2.878   2.194   7.932  0.5080  0.4741 -0.6839
17995SOL    HW154163   2.849   2.268   7.992 -0.2131 -0.5278  0.2449
17995SOL    HW254164   2.800   2.134   7.912  1.7601 -2.2597  1.7883
17996SOL     OW54165   8.664   5.995   0.051 -0.4167  0.0589 -0.2638
17996SOL    HW154166   8.609   5.919   0.015 -0.0607  0.4990 -1.8507
17996SOL    HW254167   8.761   5.971   0.045 -0.3632 -0.3445  1.6465
17997SOL     OW54168   4.859   7.713   3.136 -0.1197  0.4179  0.1952
17997SOL    HW154169   4.822   7.779   3.202 -1.1591  0.3945 -0.3449
17997SOL    HW254170   4.930   7.757   3.082  0.1163  0.7042  0.7303
17998SOL     OW54171   3.935   6.996   6.824  0.2906  0.5018 -0.1282
17998SOL    HW154172   3.889   6.979   6.911  0.1966  0.4099 -0.1951
17998SOL    HW254173   3.870   7.031   6.757  0.2214 -0.0410 -0.3520
17999SOL     OW54174   0.796   5.853   3.306  0.1705  0.6113  0.0110
17999SOL    HW154175   0.823   5.763   3.340 -0.1353  0.1779 -0.8658
17999SOL    HW254176   0.874   5.898   3.262 -0.1140 -0.0060 -1.1726
18000SOL     OW54177   2.207   3.954   5.244  0.3392 -0.8208 -0.1193
18000SOL    HW154178   2.110   3.932   5.241 -0.1060  0.9301  0.3198
18000SOL    HW254179   2.250   3.907   5.321 -0.6599  0.1446  1.0679
18001SOL     OW54180   3.964   5.532   4.440 -0.4122 -0.6720  0.0788
18001SOL    HW154181   3.918   5.477   4.371  0.5698  0.0344 -1.1749
18001SOL    HW254182   3.896   5.576   4.499 -1.3453  0.0902 -1.5144
18002SOL     OW54183   6.496   7.441   1.637  0.3363 -0.2886  0.1346
18002SOL    HW154184   6.433   7.509   1.676 -1.2622 -1.2828 -0.6310
18002SOL    HW254185   6.512   7.461   1.540  1.3776  0.0510  0.3564
18003SOL     OW54186   4.924   6.156   8.093  0.4331  0.1476  0.7595
18003SOL    HW154187   4.876   6.243   8.078 -0.0825 -0.0850  1.0251
18003SOL    HW254188   4.960   6.123   8.007 -1.0885 -0.3615  0.2818
18004SOL     OW54189   8.070   3.751   3.967  0.0329 -0.0637  0.1559
18004SOL    HW154190   8.037   3.845   3.963  1.2549  0.4096  0.8071
18004SOL    HW254191   7.994   3.688   3.946 -0.4881  1.0889 -1.6512
18005SOL     OW54192   3.561   4.117   0.611 -0.6566 -0.3094  0.1368
18005SOL    HW154193   3.583   4.195   0.552  0.0743  0.6105  1.5576
18005SOL    HW254194   3.462   4.115   0.627 -0.5174  1.6084  1.6863
18006SOL     OW54195   0.408   8.011   1.476 -0.3908 -0.2412 -0.3996
18006SOL    HW154196   0.385   8.108   1.477 -0.3077 -0.2212 -0.4213
18006SOL    HW254197   0.356   7.964   1.548 -0.3620 -0.1655 -0.3292
18007SOL     OW54198   7.248   1.828   3.186  0.0574  0.7178 -0.1218
18007SOL    HW154199   7.153   1.827   3.156 -0.1094 -2.0189  0.2345
18007SOL    HW254200   7.307   1.800   3.110  0.2074 -0.6795  0.4739
18008SOL     OW54201   6.457   6.606   4.649 -0.5851 -0.2763 -0.5377
18008SOL    HW154202   6.441   6.520   4.601 -0.7804  0.1662 -1.2690
18008SOL    HW254203   6.372   6.638   4.690 -0.0145 -1.8551  2.2066
18009SOL     OW54204   0.259   5.320   6.492 -0.6538 -0.2252  0.5594
18009SOL    HW154205   0.257   5.282   6.584 -0.4147 -2.2332 -0.2096
18009SOL    HW254206   0.282   5.248   6.426 -2.3413  0.7696 -1.2466
18010SOL     OW54207   7.266   7.202   7.293 -0.0337 -0.1286 -0.3644
18010SOL    HW154208   7.175   7.185   7.252 -0.2418  0.6411 -0.2332
18010SOL    HW254209   7.318   7.263   7.233  0.4215 -0.6012 -0.4585
18011SOL     OW54210   1.011   0.332   7.984 -0.6413 -0.1702 -0.1247
18011SOL    HW154211   0.959   0.374   7.909  0.0660 -0.9885 -1.1097
18011SOL    HW254212   1.054   0.248   7.951  0.8840  0.2127  0.8095
18012SOL     OW54213   1.767   5.451   3.027  0.6359 -0.1468  0.5722
18012SOL    HW154214   1.808   5.489   3.110 -1.0691  0.2142  1.2992
18012SOL    HW254215   1.726   5.526   2.974  0.0032 -0.5921  0.4194
18013SOL     OW54216   1.998   3.960   0.509  0.5235 -0.2250 -0.4057
18013SOL    HW154217   1.908   3.984   0.547  0.9348  2.0029 -0.7111
18013SOL    HW254218   1.993   3.962   0.409  0.6433 -1.2934 -0.4447
18014SOL     OW54219   0.886   2.909   5.481  0.3646  0.0606  0.2564
18014SOL    HW154220   0.812   2.965   5.519 -0.8848 -0.9172 -0.6525
18014SOL    HW254221   0.971   2.962   5.481 -0.6799  1.8262 -0.2052
18015SOL     OW54222   6.296   2.257   1.764  0.7417 -0.3046  0.2446
18015SOL    HW154223   6.333   2.209   1.843 -1.1832 -0.4259  1.0998
18015SOL    HW254224   6.206   2.293   1.785  1.2065  1.8288 -1.0949
18016SOL     OW54225   5.506   7.281   8.722  0.1455  0.6120  0.0604
18016SOL    HW154226   5.469   7.309   8.634 -1.4036  0.9022  0.7703
18016SOL    HW254227   5.561   7.356   8.760  1.0569  0.3745 -0.7767
18017SOL     OW54228   7.214   7.255   0.769  0.1535  0.1338 -0.1930
18017SOL    HW154229   7.154   7.176   0.756  1.3071 -0.8213  0.1110
18017SOL    HW254230   7.160   7.339   0.764 -0.9473 -0.6128 -1.5046
18018SOL     OW54231   0.921   1.246   0.670  0.1308  0.1492 -0.1950
18018SOL    HW154232   0.837   1.223   0.720  1.6575 -1.4343  1.7929
18018SOL    HW254233   0.991   1.277   0.735  1.3577  0.6491 -1.7067
18019SOL     OW54234   0.355   7.722   5.106 -0.3782 -0.0407 -0.4138
18019SOL    HW154235   0.420   7.672   5.049 -0.6586 -0.5074 -0.3307
18019SOL    HW254236   0.387   7.816   5.119  0.8667 -0.5541  0.5368
18020SOL     OW54237   2.161   6.806   5.540  0.5183 -0.3217  0.2751
18020SOL    HW154238   2.068   6.773   5.521  0.3643  0.4075 -0.2641
18020SOL    HW254239   2.201   6.841   5.456 -0.1540  2.9112  1.1938
18021SOL     OW54240   4.406   0.033   7.965  0.1784  0.4249 -0.0063
18021SOL    HW154241   4.403  -0.067   7.972 -2.8793  0.4395  0.3951
18021SOL    HW254242   4.400   0.060   7.869  0.0118  0.2326 -0.0493
18022SOL     OW54243   6.293   5.882   5.095 -0.1607 -0.6245  0.3591
18022SOL    HW154244   6.268   5.966   5.142 -3.0858 -0.1497 -1.7163
18022SOL    HW254245   6.352   5.904   5.017  0.9172 -0.8204  1.1053
18023SOL     OW54246   7.407   1.506   7.744  0.4028  0.0014 -0.6265
18023SOL    HW154247   7.389   1.532   7.649 -0.9500  1.1660 -0.0841
18023SOL    HW254248   7.368   1.574   7.805  0.4992 -1.1786  0.7992
18024SOL     OW54249   3.143   7.839   2.430 -0.2463  0.3573 -0.0877
18024SOL    HW154250   3.198   7.778   2.373 -0.1985  1.4852 -1.3246
18024SOL    HW254251   3.061   7.867   2.379  0.1855  2.0040  0.0729
18025SOL     OW54252   1.531   0.870   0.890  0.4528 -0.1320  0.2370
18025SOL    HW154253   1.438   0.904   0.876 -0.1859 -0.7393  2.5883
18025SOL    HW254254   1.592   0.910   0.821 -1.3890  0.8617 -0.8883
18026SOL     OW54255   4.835   7.194   7.762 -0.1112  0.1398 -0.5948
18026SOL    HW154256   4.828   7.277   7.707 -0.5191 -0.8898 -2.1307
18026SOL    HW254257   4.757   7.135   7.745 -0.6789  0.1158  1.7078
18027SOL     OW54258   3.229   7.896   8.235  0.8263  0.3183 -0.2057
18027SOL    HW154259   3.235   7.849   8.323  0.6827  0.8084  0.0730
18027SOL    HW254260   3.307   7.958   8.225  0.6570  0.5259 -0.2618
18028SOL     OW54261   0.756   7.818   5.982  0.0032  0.8161  0.2148
18028SOL    HW154262   0.827   7.820   6.051  0.3029 -0.6375 -0.0077
18028SOL    HW254263   0.727   7.723   5.967 -1.8959  1.3408  0.2116
18029SOL     OW54264   5.185   6.404   5.177 -0.4798 -0.4439 -0.2019
18029SOL    HW154265   5.142   6.317   5.153 -1.2756 -0.2060  0.3332
18029SOL    HW254266   5.114   6.472   5.194  0.1324  0.1910 -0.1657
18030SOL     OW54267   4.917   7.186   6.859  0.4528 -0.3761 -0.5138
18030SOL    HW154268   5.005   7.173   6.814  0.3265  1.9911 -1.6118
18030SOL    HW254269   4.844   7.149   6.802  0.5352  0.0979 -0.9383
18031SOL     OW54270   7.767   5.872   8.605 -0.5919 -0.0654 -0.2000
18031SOL    HW154271   7.706   5.950   8.593  0.7899  1.1448  0.2821
18031SOL    HW254272   7.795   5.866   8.701  1.4587  0.5839 -0.6927
18032SOL     OW54273   0.179   3.490   8.295  0.4128 -0.2541 -0.2180
18032SOL    HW154274   0.167   3.536   8.207  1.4749 -1.5454 -1.0805
18032SOL    HW254275   0.267   3.517   8.334 -0.3012  0.7543  0.7593
18033SOL     OW54276   4.798   4.595   7.656 -0.1165 -0.0411  0.0930
18033SOL    HW154277   4.777   4.644   7.571  0.5949 -0.5195 -0.3708
18033SOL    HW254278   4.724   4.531   7.676 -2.1115  2.5317  1.7986
18034SOL     OW54279   2.113   3.823   8.861  0.3643  0.2268 -0.2048
18034SOL    HW154280   2.101   3.723   8.857  1.0912 -0.0757  3.0183
18034SOL    HW254281   2.189   3.849   8.801  0.9828 -1.3398 -0.1683
18035SOL     OW54282   3.464   7.552   7.225  0.2079  0.0408 -0.3031
18035SOL    HW154283   3.539   7.560   7.159  1.1428 -0.5394  0.6703
18035SOL    HW254284   3.451   7.640   7.272  0.3363  0.1158 -0.4071
18036SOL     OW54285   4.478   7.864   7.955  0.1914  0.9817 -0.2492
18036SOL    HW154286   4.384   7.879   7.987  0.1761  1.8627 -0.6721
18036SOL    HW254287   4.483   7.883   7.857  0.3873 -1.0592 -0.6821
18037SOL     OW54288   4.071   5.245   4.943 -0.1792 -0.1172  0.5688
18037SOL    HW154289   4.134   5.256   5.020 -0.9486  1.3480  1.0217
18037SOL    HW254290   3.984   5.288   4.964 -1.0674 -1.3536 -0.3999
18038SOL     OW54291   6.333   3.618   4.871 -0.4137 -0.3382  0.5535
18038SOL    HW154292   6.258   3.665   4.825  0.0342  0.2129  0.3766
18038SOL    HW254293   6.359   3.668   4.954  0.1040 -0.2327  0.3336
18039SOL     OW54294   7.018   7.965   2.965  0.0848 -0.2490  0.4732
18039SOL    HW154295   6.954   7.976   2.889  1.1443 -1.0667 -0.5670
18039SOL    HW254296   7.001   7.877   3.010  0.6605 -0.6171 -0.0089
18040SOL     OW54297   7.035   7.977   4.588  0.1833 -0.0181 -0.1710
18040SOL    HW154298   7.007   8.071   4.565 -0.5776  0.0660  1.0499
18040SOL    HW254299   7.129   7.978   4.622  0.2375  0.2816 -0.3277
18041SOL     OW54300   3.499   6.390   6.922 -0.2416  0.2300 -0.1874
18041SOL    HW154301   3.480   6.292   6.925  0.1555  0.1857  1.6330
18041SOL    HW254302   3.414   6.441   6.934 -0.3445  0.1108 -0.3986
18042SOL     OW54303   4.155   5.977   5.465  0.5656 -0.4495 -0.2858
18042SOL    HW154304   4.101   5.974   5.381 -1.4517 -0.2740  0.9169
18042SOL    HW254305   4.123   5.905   5.527  0.7505  0.5455  1.0132
18043SOL     OW54306   5.754   4.168   5.788  0.2339  0.2734 -0.1128
18043SOL    HW154307   5.733   4.254   5.741  0.5638  1.9134  2.4815
18043SOL    HW254308   5.733   4.178   5.885  1.8440 -2.0339  0.5573
18044SOL     OW54309   5.106   7.110   0.055  0.2473  0.0428 -0.0521
18044SOL    HW154310   5.045   7.099  -0.023 -0.1713  0.1698  0.2504
18044SOL    HW254311   5.179   7.042   0.050  0.5532  0.4201 -0.8524
18045SOL     OW54312   3.282   7.577   5.809 -0.0639 -0.1183  0.2391
18045SOL    HW154313   3.190   7.564   5.847 -0.3481  0.3799 -0.2557
18045SOL    HW254314   3.275   7.586   5.709  0.3417  1.4186  0.3175
18046SOL     OW54315   0.501   2.281   2.552  1.1537  0.4983  0.1511
18046SOL    HW154316   0.434   2.329   2.608 -0.0422 -0.1833 -0.6609
18046SOL    HW254317   0.592   2.292   2.592  0.5025  1.0564  1.5244
18047SOL     OW54318   7.031   2.700   1.293  0.2323  0.2035  0.0831
18047SOL    HW154319   7.078   2.616   1.321  1.1224  0.8776  0.6827
18047SOL    HW254320   7.030   2.765   1.369 -0.3372  0.7864 -0.4102
18048SOL     OW54321   2.765   6.165   0.989  0.3427 -0.3114 -0.4482
18048SOL    HW154322   2.788   6.141   0.895  1.9591 -1.4325  0.1781
18048SOL    HW254323   2.703   6.097   1.027 -0.9313  0.5547 -0.9007
18049SOL     OW54324   3.829   2.337   8.199  0.5515  0.1733  0.4311
18049SOL    HW154325   3.776   2.406   8.248  0.1292  1.4865 -1.7673
18049SOL    HW254326   3.907   2.380   8.153  2.2541 -1.3630  1.6860
18050SOL     OW54327   5.521   6.885   5.700 -0.0249  0.0502  0.0784
18050SOL    HW154328   5.581   6.845   5.770 -0.7575 -0.9510  0.1512
18050SOL    HW254329   5.561   6.971   5.668  0.1478  0.7486  1.9992
18051SOL     OW54330   3.775   2.954   4.620 -0.5416 -0.4208 -0.1837
18051SOL    HW154331   3.725   2.941   4.706  2.6247 -2.2396  1.5425
18051SOL    HW254332   3.869   2.981   4.639  0.3387 -1.0829 -3.0892
18052SOL     OW54333   5.785   3.187   4.221  0.2061  0.3861 -0.4076
18052SOL    HW154334   5.869   3.186   4.277 -0.3199  0.2803  0.3966
18052SOL    HW254335   5.749   3.280   4.218  0.4668  0.4721 -0.9344
18053SOL     OW54336   4.669   8.444   5.717 -0.8789  0.9413  0.0617
18053SOL    HW154337   4.663   8.430   5.816  2.1327  0.6301  0.2754
18053SOL    HW254338   4.694   8.539   5.699 -0.3183  0.7190 -0.3395
18054SOL     OW54339   1.067   2.525   6.096 -0.2971  0.4297 -0.2365
18054SOL    HW154340   1.015   2.484   6.021 -3.6440 -1.4487  2.7567
18054SOL    HW254341   1.014   2.601   6.135  0.6493  0.4544  1.0586
18055SOL     OW54342   7.405   6.457   5.814 -0.9125 -0.5853  0.4991
18055SOL    HW154343   7.466   6.509   5.874  0.2543 -0.2765 -0.8909
18055SOL    HW254344   7.446   6.452   5.722 -4.2517  2.1616 -1.3725
18056SOL     OW54345   2.955   6.145   6.186 -0.4187 -0.0506 -0.1078
18056SOL    HW154346   2.973   6.053   6.152  1.4782  0.1946  0.1121
18056SOL    HW254347   2.931   6.141   6.283 -1.6310 -0.4062 -0.4142
18057SOL     OW54348   2.499   1.285   4.495  0.2591  0.1324  0.0739
18057SOL    HW154349   2.470   1.206   4.548  1.1625 -1.7465 -2.0815
18057SOL    HW254350   2.592   1.271   4.461  0.4962  2.1958 -0.2831
18058SOL     OW54351   1.131   3.896   6.076  0.4314 -0.0626  0.2794
18058SOL    HW154352   1.156   3.809   6.117  0.1793  0.8185  2.4549
18058SOL    HW254353   1.068   3.881   6.000  1.2378 -1.8126 -0.0814
18059SOL     OW54354   1.181   7.839   7.453 -0.6582 -0.4743  0.8004
18059SOL    HW154355   1.120   7.875   7.523  0.2714 -0.0569  1.4132
18059SOL    HW254356   1.205   7.745   7.473 -1.6555 -0.8817  0.1668
18060SOL     OW54357   5.127   3.367   8.469 -0.2359  0.3876 -0.3774
18060SOL    HW154358   5.120   3.406   8.377 -1.1082 -0.1299 -0.5425
18060SOL    HW254359   5.149   3.270   8.463 -1.8171 -0.0173 -0.1163
18061SOL     OW54360   0.119   2.797   3.563  0.4597  0.3790  0.1262
18061SOL    HW154361   0.188   2.866   3.584 -0.2823  1.3233 -0.4464
18061SOL    HW254362   0.155   2.706   3.583  1.3028  0.9532  1.3112
18062SOL     OW54363   2.781   3.933   4.097  0.2086 -0.2343  0.0895
18062SOL    HW154364   2.814   3.969   4.185 -2.7525  1.5036  0.6111
18062SOL    HW254365   2.796   4.002   4.026 -0.4652 -0.2445 -0.0625
18063SOL     OW54366   0.201   8.749   1.057  0.2666  0.5005  0.3983
18063SOL    HW154367   0.126   8.816   1.051  1.6498  2.0516 -0.1992
18063SOL    HW254368   0.182   8.672   0.996 -1.2884  0.3704  0.9912
18064SOL     OW54369   7.542   6.421   6.350 -0.1866 -0.1135  0.1984
18064SOL    HW154370   7.597   6.360   6.293  0.3526 -1.6433  2.2074
18064SOL    HW254371   7.445   6.405   6.333 -0.0913 -2.3872  1.4074
18065SOL     OW54372   2.399   6.626   5.612 -0.1463  0.4809  0.5841
18065SOL    HW154373   2.319   6.675   5.577 -0.0945  1.7388  2.0873
18065SOL    HW254374   2.372   6.570   5.690 -0.0392 -1.3158 -0.6105
18066SOL     OW54375   3.155   5.622   2.683 -0.1534  0.2152 -0.0448
18066SOL    HW154376   3.153   5.633   2.583  0.2577  1.2151  0.0457
18066SOL    HW254377   3.228   5.559   2.708 -1.6506 -1.7974 -0.4948
18067SOL     OW54378   1.236   8.375   1.731 -0.3072  0.2716  0.7538
18067SOL    HW154379   1.255   8.471   1.750  2.5614 -0.2502  1.1465
18067SOL    HW254380   1.198   8.365   1.639  0.6145  1.6981  0.1881
18068SOL     OW54381   7.243   8.615   5.729  0.0669  0.3288  0.5265
18068SOL    HW154382   7.286   8.551   5.792  0.6241 -0.2737 -0.4424
18068SOL    HW254383   7.234   8.705   5.773  1.5812  0.2497  1.0483
18069SOL     OW54384   5.116   1.005   5.849  0.0666 -0.2434 -0.1453
18069SOL    HW154385   5.091   0.909   5.833  0.8182 -0.2267 -1.5725
18069SOL    HW254386   5.215   1.012   5.861 -0.1607  0.1436  1.8369
18070SOL     OW54387   8.611   4.604   8.448  0.2094 -0.4182 -0.5736
18070SOL    HW154388   8.559   4.638   8.527  1.9301 -1.6984  1.1894
18070SOL    HW254389   8.556   4.537   8.399 -1.0149  0.6458 -0.7222
18071SOL     OW54390   2.166   5.183   6.106  0.7428 -0.1604  0.4394
18071SOL    HW154391   2.138   5.268   6.060  0.3491  0.3281  1.5369
18071SOL    HW254392   2.145   5.190   6.204  0.2225 -1.7334  0.4634
18072SOL     OW54393   7.011   0.462   3.389 -0.0248 -0.3353 -0.0454
18072SOL    HW154394   6.964   0.479   3.475 -0.9502  1.3185 -0.8271
18072SOL    HW254395   6.985   0.533   3.322  1.5830 -0.8840 -1.3135
18073SOL     OW54396   6.815   1.980   7.286  0.2924  1.0268  0.3351
18073SOL    HW154397   6.832   1.994   7.189 -0.2364 -1.3767 -0.1738
18073SOL    HW254398   6.889   1.926   7.326  2.3201  4.7774  2.1843
18074SOL     OW54399   5.187   8.106   0.339 -0.4950 -0.0979 -0.1351
18074SOL    HW154400   5.241   8.132   0.260 -1.4876 -0.6731 -1.0313
18074SOL    HW254401   5.095   8.145   0.331 -0.4644  0.2549  0.9890
18075SOL     OW54402   0.407   0.105   4.760  0.2297 -0.5248  0.3821
18075SOL    HW154403   0.408   0.026   4.822 -0.4514 -0.2809  0.7087
18075SOL    HW254404   0.428   0.188   4.812  0.2325 -0.3952  0.1745
18076SOL     OW54405   7.376   5.398   5.098  0.1804 -0.1481  0.3402
18076SOL    HW154406   7.429   5.320   5.064  0.0000 -0.7831  1.4700
18076SOL    HW254407   7.439   5.473   5.121  0.3983 -0.1374 -0.2642
18077SOL     OW54408   1.072   7.311   2.911 -0.2795 -0.2225 -0.5209
18077SOL    HW154409   1.095   7.406   2.893  0.1597 -0.1469  0.3882
18077SOL    HW254410   1.138   7.272   2.975 -0.0719 -1.3358 -1.3785
18078SOL     OW54411   4.518   2.865   2.146 -0.3085  0.2813  0.1597
18078SOL    HW154412   4.595   2.917   2.185  1.2037 -1.2038 -0.7265
18078SOL    HW254413   4.501   2.784   2.202 -1.6344  0.8536  0.6438
18079SOL     OW54414   0.475   5.903   1.941 -0.4525 -0.0261 -0.1544
18079SOL    HW154415   0.429   5.965   1.877 -2.3648 -0.5762  0.6108
18079SOL    HW254416   0.544   5.849   1.892  0.4277  1.8509 -1.0503
18080SOL     OW54417   6.405   8.504   0.130 -0.1029 -0.4002 -0.4040
18080SOL    HW154418   6.354   8.587   0.150  0.0903 -0.7678  1.9842
18080SOL    HW254419   6.395   8.481   0.033 -1.2878  1.6113 -0.8252
18081SOL     OW54420   7.106   5.609   0.647 -0.1574 -0.0014 -0.2071
18081SOL    HW154421   7.159   5.524   0.653  0.4659  0.4303  0.7043
18081SOL    HW254422   7.024   5.601   0.704 -0.2843 -0.1172 -0.4049
18082SOL     OW54423   0.657   3.047   5.583  0.5226 -0.4657 -0.2675
18082SOL    HW154424   0.563   3.033   5.617  0.5814 -2.5870 -0.8571
18082SOL    HW254425   0.679   3.145   5.588 -0.4892 -0.2685  3.0746
18083SOL     OW54426   3.405   6.150   5.942 -0.5206  0.0063  0.2395
18083SOL    HW154427   3.386   6.075   5.879 -0.8261 -0.3488  0.7459
18083SOL    HW254428   3.503   6.164   5.950 -0.4124 -1.0426  0.9467
18084SOL     OW54429   3.894   3.948   2.196 -0.0571 -0.0651  0.1187
18084SOL    HW154430   3.799   3.953   2.226 -0.1344  0.1655 -0.1566
18084SOL    HW254431   3.944   4.027   2.232  0.3210 -0.8046  1.2567
18085SOL     OW54432   4.742   5.475   2.885  0.4142 -0.0069  0.6280
18085SOL    HW154433   4.829   5.425   2.885  0.5950  0.3026  1.1901
18085SOL    HW254434   4.701   5.470   2.976 -0.1194 -0.0779  0.3885
18086SOL     OW54435   2.771   7.002   7.640  0.5136  0.0975  0.5695
18086SOL    HW154436   2.687   7.006   7.694  2.2400  2.6127  3.4609
18086SOL    HW254437   2.780   7.087   7.587  0.9224 -0.4755 -0.3055
18087SOL     OW54438   4.627   2.551   6.121  0.1775  0.2589 -0.1857
18087SOL    HW154439   4.675   2.526   6.038  1.5117  1.0464  0.3236
18087SOL    HW254440   4.554   2.615   6.100 -1.3926 -1.7124 -1.1019
18088SOL     OW54441   3.799   6.785   5.337 -0.5227  0.0097 -0.4605
18088SOL    HW154442   3.717   6.753   5.386 -0.9624  1.6871 -0.0333
18088SOL    HW254443   3.819   6.879   5.364  0.4305  0.2833 -2.0018
18089SOL     OW54444   6.810   6.290   1.998 -0.9383 -0.1809  0.5767
18089SOL    HW154445   6.853   6.300   1.909  0.0368 -1.8999  0.7986
18089SOL    HW254446   6.722   6.243   1.988 -1.4271  0.7532  0.4112
18090SOL     OW54447   7.327   8.293   6.754 -0.1341  0.2872  0.3896
18090SOL    HW154448   7.299   8.253   6.841 -0.2971  0.0922  0.2480
18090SOL    HW254449   7.377   8.378   6.771  0.9463 -0.4087  0.7231
18091SOL     OW54450   3.331   2.665   8.074  0.3989 -0.4929 -0.5310
18091SOL    HW154451   3.335   2.729   8.151  0.4635 -1.6248  0.4355
18091SOL    HW254452   3.420   2.622   8.061  0.7026  0.5350 -2.0042
18092SOL     OW54453   6.162   1.753   0.614 -0.2016 -0.0818  0.4281
18092SOL    HW154454   6.218   1.673   0.594  0.1349 -0.5498  2.8591
18092SOL    HW254455   6.188   1.829   0.554  1.9752 -0.7461  0.4581
18093SOL     OW54456   0.481   3.472   3.663  0.6908  0.1776 -0.2941
18093SOL    HW154457   0.492   3.446   3.567  0.9845  0.0643 -0.2307
18093SOL    HW254458   0.392   3.442   3.696 -0.2767  2.0255 -1.1140
18094SOL     OW54459   6.482   8.028   0.537  0.3645  0.5815  0.2646
18094SOL    HW154460   6.448   8.057   0.448  2.0825  0.3604 -0.5024
18094SOL    HW254461   6.471   7.929   0.547  0.3936  0.5730  0.2050
18095SOL     OW54462   5.681   0.682   1.111 -0.3953 -0.0822  0.7259
18095SOL    HW154463   5.616   0.722   1.175  0.8369  0.7729  1.5022
18095SOL    HW254464   5.754   0.748   1.093  1.0014 -1.4966  0.9938
18096SOL     OW54465   6.533   4.440   7.805  0.2711 -0.6032  0.4209
18096SOL    HW154466   6.456   4.418   7.746 -0.1089  1.0772  0.2317
18096SOL    HW254467   6.604   4.370   7.796  0.1314 -0.5231 -1.8838
18097SOL     OW54468   5.854   3.256   4.728  0.6556  0.2759  0.0249
18097SOL    HW154469   5.854   3.349   4.691  1.7417  0.7111  1.0383
18097SOL    HW254470   5.930   3.247   4.793  1.2148 -1.6375 -0.8431
18098SOL     OW54471   0.613   5.236   2.309 -0.4415  0.3705  0.3552
18098SOL    HW154472   0.576   5.151   2.271 -2.4437  1.4025 -0.1586
18098SOL    HW254473   0.707   5.221   2.339 -0.8428 -2.0933  0.5745
18099SOL     OW54474   6.961   8.495   2.629 -0.5558  0.4214  0.3379
18099SOL    HW154475   6.885   8.477   2.567  0.5287  0.0509 -0.9122
18099SOL    HW254476   6.971   8.594   2.641  1.3641  0.7496 -2.9186
18100SOL     OW54477   2.853   5.441   7.967  0.2746  0.2711 -0.0071
18100SOL    HW154478   2.886   5.533   7.949  0.7483 -0.0888 -1.1448
18100SOL    HW254479   2.923   5.390   8.018  0.2999  0.3471  0.0337
18101SOL     OW54480   8.776   7.697   0.762 -0.5693 -0.0004 -0.4990
18101SOL    HW154481   8.862   7.718   0.714  0.1882 -0.1121  0.7755
18101SOL    HW254482   8.767   7.756   0.842 -1.5491 -0.2053 -0.4481
18102SOL     OW54483   0.057   6.625   2.371 -0.8364  0.5253  0.0980
18102SOL    HW154484   0.032   6.551   2.309 -3.1558 -0.4668  2.0270
18102SOL    HW254485   0.119   6.589   2.442 -1.2395  0.6407  0.5160
18103SOL     OW54486   3.640   0.147   6.883  0.4933 -0.5963  0.0351
18103SOL    HW154487   3.567   0.208   6.852  1.3644  0.2993 -0.3406
18103SOL    HW254488   3.608   0.092   6.960 -0.6007 -0.3059 -0.1957
18104SOL     OW54489   0.276   7.480   8.466  0.4641 -0.4627 -0.3643
18104SOL    HW154490   0.260   7.392   8.510  2.0506 -1.0103 -0.8266
18104SOL    HW254491   0.364   7.479   8.419 -0.4150  0.6615 -2.1581
18105SOL     OW54492   1.775   0.739   3.575 -0.6723  0.4012  0.8795
18105SOL    HW154493   1.782   0.804   3.651 -0.0352  1.1978  0.1523
18105SOL    HW254494   1.679   0.729   3.549 -0.9756 -0.3713  2.1913
18106SOL     OW54495   4.198   6.750   6.341  0.1442  0.7996 -0.4188
18106SOL    HW154496   4.214   6.847   6.327 -1.9634  1.2163 -0.2413
18106SOL    HW254497   4.217   6.700   6.256 -0.4709  1.6208 -1.0518
18107SOL     OW54498   3.688   1.655   4.482  0.1124  0.3783  0.4413
18107SOL    HW154499   3.623   1.711   4.430  0.3077 -0.2133 -0.4511
18107SOL    HW254500   3.756   1.715   4.525 -0.0974  0.8779  0.0889
18108SOL     OW54501   4.577   6.839   7.913  0.5277  0.1288 -0.4505
18108SOL    HW154502   4.574   6.743   7.885 -0.9582  0.2378 -0.7169
18108SOL    HW254503   4.634   6.847   7.995  1.7166 -0.7680 -1.1489
18109SOL     OW54504   7.986   6.700   6.969  0.2261  0.4914  0.0080
18109SOL    HW154505   7.959   6.642   6.893 -0.9175  1.1891 -0.1539
18109SOL    HW254506   8.028   6.645   7.041 -0.8882 -0.5514 -0.1117
18110SOL     OW54507   4.270   7.436   8.805 -0.0033 -0.2304  0.0348
18110SOL    HW154508   4.186   7.385   8.821 -0.4552  0.9808  1.8954
18110SOL    HW254509   4.320   7.396   8.728 -0.9043 -2.6919  0.6352
18111SOL     OW54510   4.220   6.104   2.343  0.4635 -0.2034 -0.2356
18111SOL    HW154511   4.259   6.141   2.427 -2.5685  1.2843  0.6582
18111SOL    HW254512   4.253   6.158   2.265  1.8271 -0.4003  0.1775
18112SOL     OW54513   6.358   3.929   4.339  0.1666 -0.1714  0.3036
18112SOL    HW154514   6.449   3.901   4.368  0.1413 -1.3465 -0.6995
18112SOL    HW254515   6.293   3.913   4.413  0.7964  0.9207  1.1214
18113SOL     OW54516   0.823   7.337   2.743 -0.1348  0.0855 -0.2006
18113SOL    HW154517   0.901   7.290   2.786  0.2860 -0.3657 -1.4056
18113SOL    HW254518   0.853   7.380   2.658 -0.8835  1.2106  0.0904
18114SOL     OW54519   8.510   8.389   0.380  0.2930  0.6433 -0.7778
18114SOL    HW154520   8.571   8.357   0.453 -0.2962  0.1962 -0.4773
18114SOL    HW254521   8.441   8.319   0.361  0.7177  0.5584 -2.0883
18115SOL     OW54522   0.438   4.456   2.041  0.5382 -0.8070  0.2637
18115SOL    HW154523   0.433   4.530   2.108  0.9196 -1.6745  1.2773
18115SOL    HW254524   0.520   4.468   1.985  3.6222 -3.0687  3.7353
18116SOL     OW54525   2.257   7.486   2.041 -0.4827 -0.3185 -0.0718
18116SOL    HW154526   2.273   7.583   2.058 -0.0032 -0.0724 -1.7117
18116SOL    HW254527   2.230   7.473   1.946 -2.0749 -1.6485  0.5048
18117SOL     OW54528   8.004   0.941   3.813 -0.4757  0.3543 -0.5507
18117SOL    HW154529   7.977   0.990   3.895 -0.0584 -0.8618  0.3448
18117SOL    HW254530   8.039   0.850   3.838 -1.5758 -0.5704 -2.1618
18118SOL     OW54531   6.494   0.019   6.314  0.0673  0.1664  0.2406
18118SOL    HW154532   6.518   0.071   6.396  2.2833  1.1640 -0.9646
18118SOL    HW254533   6.456   0.081   6.246  1.5383  0.0211 -0.7452
18119SOL     OW54534   5.498   0.165   4.476 -0.0663  0.6989 -0.4838
18119SOL    HW154535   5.581   0.185   4.423 -0.1546  0.5630 -0.6764
18119SOL    HW254536   5.491   0.066   4.488  1.6357  0.8140  2.4692
18120SOL     OW54537   5.186   5.956   6.927 -0.1200 -0.4728  0.1021
18120SOL    HW154538   5.138   5.979   6.842  1.4213  0.1980 -0.6158
18120SOL    HW254539   5.256   6.024   6.945  0.8210 -1.6161  0.9277
18121SOL     OW54540   7.121   6.758   4.431 -0.3154 -0.3275 -0.1797
18121SOL    HW154541   7.073   6.704   4.501  0.2848 -0.0132  0.4880
18121SOL    HW254542   7.099   6.722   4.340 -0.7473 -1.0349  0.1964
18122SOL     OW54543   6.565   1.934   4.420  0.4437  0.7324  0.3668
18122SOL    HW154544   6.573   1.993   4.340 -0.5536 -0.1623 -0.4103
18122SOL    HW254545   6.469   1.911   4.436  0.7466 -0.0807  1.0954
18123SOL     OW54546   0.760   5.798   7.769 -0.7423 -0.1873 -0.4110
18123SOL    HW154547   0.762   5.874   7.704 -0.7544 -0.3072 -0.5516
18123SOL    HW254548   0.674   5.749   7.761 -1.5077  0.8633  0.9280
18124SOL     OW54549   6.062   7.293   6.269  0.2142 -0.2417  0.2602
18124SOL    HW154550   6.019   7.272   6.181  1.0111  0.5525 -0.3315
18124SOL    HW254551   6.110   7.212   6.303  1.3643 -0.0726 -0.8924
18125SOL     OW54552   1.864   2.726   2.788  0.0341 -0.0246 -0.6089
18125SOL    HW154553   1.764   2.721   2.788  0.1008 -1.9188  0.0811
18125SOL    HW254554   1.896   2.749   2.880  0.2650  0.4879 -0.8099
18126SOL     OW54555   0.542   6.992   2.753 -0.2304 -0.6632 -0.0292
18126SOL    HW154556   0.443   6.990   2.762 -0.4617 -2.3610 -2.0165
18126SOL    HW254557   0.568   7.053   2.677  0.0427 -1.7797 -0.8680
18127SOL     OW54558   7.085   4.525   3.165 -0.1331 -0.7325  0.1176
18127SOL    HW154559   7.014   4.529   3.236  0.4721 -0.0870  0.7047
18127SOL    HW254560   7.133   4.613   3.161 -0.1120 -0.7855 -1.0557
18128SOL     OW54561   5.189   0.079   6.404  0.5032  0.3564 -0.6620
18128SOL    HW154562   5.183   0.171   6.365  1.3986  0.7604  0.1311
18128SOL    HW254563   5.138   0.075   6.489  3.0931  1.0849  1.0292
18129SOL     OW54564   8.151   5.607   6.817 -0.4630 -0.4752 -0.2167
18129SOL    HW154565   8.075   5.547   6.793  0.0153 -0.8219 -0.8865
18129SOL    HW254566   8.185   5.652   6.735  0.6146 -0.9794 -0.0517
18130SOL     OW54567   0.096   7.784   5.889 -0.0296 -0.0730 -0.2620
18130SOL    HW154568   0.063   7.719   5.821  0.9668 -1.5327  0.5895
18130SOL    HW254569   0.053   7.873   5.874 -0.6747 -0.6499 -2.0789
18131SOL     OW54570   5.768   7.785   6.926 -0.4111 -0.3260  0.2826
18131SOL    HW154571   5.693   7.744   6.873  0.8236 -0.1642 -1.6937
18131SOL    HW254572   5.833   7.713   6.951  0.6233  0.0373 -1.2485
18132SOL     OW54573   5.608   5.295   7.430  0.5140 -0.2235  0.4088
18132SOL    HW154574   5.669   5.370   7.408  0.6578 -0.4058  0.1805
18132SOL    HW254575   5.598   5.235   7.350  0.4615 -0.4869  0.6092
18133SOL     OW54576   5.022   8.721   5.106  0.3086 -0.2206 -0.0292
18133SOL    HW154577   5.073   8.755   5.027 -1.1860 -0.9575 -1.3819
18133SOL    HW254578   4.944   8.782   5.123 -0.0805 -0.7430  0.0818
18134SOL     OW54579   6.582   8.692   3.731  0.6241  0.2766  0.5114
18134SOL    HW154580   6.600   8.731   3.641  0.5072 -0.6347  0.0825
18134SOL    HW254581   6.525   8.610   3.721 -0.8825  1.1433  1.5542
18135SOL     OW54582   4.902   3.371   6.824 -0.1863 -0.8033 -0.2803
18135SOL    HW154583   4.822   3.312   6.825  0.6950 -2.0321  1.0220
18135SOL    HW254584   4.985   3.316   6.822  0.6582  0.4271 -0.7283
18136SOL     OW54585   1.596   4.472   6.433  0.1567 -0.8747  0.1824
18136SOL    HW154586   1.584   4.520   6.520  0.4185  0.8214 -0.6754
18136SOL    HW254587   1.512   4.480   6.378  0.7824  0.1583 -0.6749
18137SOL     OW54588   0.019   2.365   4.093 -0.3182  0.0411  0.1361
18137SOL    HW154589  -0.053   2.304   4.127 -0.5842  0.8431  1.0685
18137SOL    HW254590  -0.007   2.460   4.110  0.7129  0.3638 -0.0103
18138SOL     OW54591   2.872   1.909   4.212  0.2343 -0.4171 -0.4360
18138SOL    HW154592   2.827   1.954   4.134  1.8181 -0.6204 -1.5305
18138SOL    HW254593   2.920   1.828   4.179  0.2083 -1.0091  0.9399
18139SOL     OW54594   1.291   3.087   3.203  0.5115  0.1792 -0.1999
18139SOL    HW154595   1.312   3.004   3.153 -0.3834 -0.3930  0.3449
18139SOL    HW254596   1.194   3.109   3.193  0.3759  0.2221  0.9933
18140SOL     OW54597   2.826   7.389   7.934 -0.2787 -0.0526 -0.1027
18140SOL    HW154598   2.781   7.316   7.983  0.7273 -1.7369 -1.5478
18140SOL    HW254599   2.897   7.430   7.991 -1.2436  0.2270  0.9194
18141SOL     OW54600   5.867   5.185   1.796  0.0867  0.3968  0.5959
18141SOL    HW154601   5.833   5.258   1.856  0.1860  0.7294  0.2504
18141SOL    HW254602   5.816   5.185   1.711 -0.7896 -0.7777  1.0913
18142SOL     OW54603   6.308   6.927   0.491 -0.3119  0.4228 -0.0864
18142SOL    HW154604   6.262   6.947   0.578 -4.1995 -1.1084 -1.6031
18142SOL    HW254605   6.339   6.832   0.491 -2.4874 -0.3519 -1.1164
18143SOL     OW54606   8.678   0.616   4.177  0.1548  0.0535  0.2050
18143SOL    HW154607   8.677   0.557   4.097  0.8653  0.2259  0.0578
18143SOL    HW254608   8.725   0.569   4.252  0.0956  0.1595  0.3094
18144SOL     OW54609   4.012   7.704   7.420 -0.3122  0.2716  0.2978
18144SOL    HW154610   3.924   7.659   7.412 -0.1138 -0.1248  0.3050
18144SOL    HW254611   4.082   7.636   7.444 -0.0423  0.6124  0.4835
18145SOL     OW54612   8.523   2.147   6.452  0.1540  0.3907  0.3836
18145SOL    HW154613   8.475   2.059   6.448  0.3073  0.3407 -2.1849
18145SOL    HW254614   8.609   2.135   6.501 -0.1168 -0.7245  0.6371
18146SOL     OW54615   3.712   3.950   5.149 -0.3526  0.1279  0.2649
18146SOL    HW154616   3.670   3.932   5.060  0.2966 -0.2387  0.0351
18146SOL    HW254617   3.694   4.045   5.175  0.3147  0.5353 -0.7265
18147SOL     OW54618   6.634   7.796   0.193 -0.1150 -0.3120  0.4348
18147SOL    HW154619   6.616   7.728   0.264  1.9855 -0.7851  0.5697
18147SOL    HW254620   6.649   7.885   0.235 -2.9325  0.3382  0.2539
18148SOL     OW54621   2.889   3.520   2.631  0.3764  0.5723 -0.1032
18148SOL    HW154622   2.894   3.574   2.715  0.5450  0.8521 -0.2907
18148SOL    HW254623   2.945   3.563   2.561 -1.5705  1.6256 -1.0777
18149SOL     OW54624   4.145   3.991   6.725 -0.4377  0.3194  0.2626
18149SOL    HW154625   4.188   3.921   6.668  1.5560  1.1390  0.6961
18149SOL    HW254626   4.194   3.998   6.811 -3.3156 -0.7998  2.1301
18150SOL     OW54627   6.996   3.647   0.662  0.1921 -0.1545 -0.3727
18150SOL    HW154628   6.926   3.601   0.716  0.1508  3.1547  2.7913
18150SOL    HW254629   6.953   3.711   0.599  0.3047  0.6944  0.3980
18151SOL     OW54630   2.348   4.388   7.076 -0.0336 -0.0913  0.7573
18151SOL    HW154631   2.342   4.485   7.054  1.7068 -0.0389  0.4481
18151SOL    HW254632   2.420   4.374   7.144  0.1212 -1.2365  0.3672
18152SOL     OW54633   1.260   0.866   3.980 -0.1894  0.1202  1.1254
18152SOL    HW154634   1.333   0.926   3.946 -0.2479  0.1374  1.0301
18152SOL    HW254635   1.202   0.916   4.044  0.5851 -0.2244  2.1307
18153SOL     OW54636   4.696   0.272   8.747  0.0507 -0.4782  0.2788
18153SOL    HW154637   4.774   0.302   8.690  0.1954  0.6760  1.0519
18153SOL    HW254638   4.666   0.348   8.804 -1.9810 -0.7587 -0.3529
18154SOL     OW54639   8.055   2.741   0.381 -0.3552 -0.2660 -0.4155
18154SOL    HW154640   8.152   2.767   0.390 -0.6919  1.3405 -1.1370
18154SOL    HW254641   8.049   2.645   0.357  1.0661 -0.4470 -0.1569
18155SOL     OW54642   2.627   4.095   5.318 -0.2822  0.2656 -0.0461
18155SOL    HW154643   2.644   3.998   5.303  0.8479  0.5298 -0.6052
18155SOL    HW254644   2.577   4.133   5.241 -1.3095  0.0002  0.4760
18156SOL     OW54645   3.523   8.282   6.032  0.0256  0.2304  0.5107
18156SOL    HW154646   3.514   8.240   5.942  1.1611  0.5334  0.2532
18156SOL    HW254647   3.598   8.347   6.032 -1.7111  2.3366  0.9038
18157SOL     OW54648   0.591   5.059   5.706 -0.2299  0.0901  0.8501
18157SOL    HW154649   0.614   5.000   5.628 -0.2413  2.1845 -0.8192
18157SOL    HW254650   0.639   5.027   5.787  1.2744 -1.0660 -0.4403
18158SOL     OW54651   4.271   6.091   5.244 -0.3133 -0.0850 -0.4504
18158SOL    HW154652   4.275   6.179   5.291 -1.0727  0.2253 -0.9429
18158SOL    HW254653   4.361   6.048   5.247 -0.1035  0.3951  0.3842
18159SOL     OW54654   2.828   3.085   3.240  0.0752 -0.2463 -0.2866
18159SOL    HW154655   2.893   3.010   3.247 -0.0439 -0.2691  0.7402
18159SOL    HW254656   2.746   3.063   3.293  0.3896  0.9497  0.7514
18160SOL     OW54657   6.029   1.271   7.432 -0.2190  0.7155  0.1177
18160SOL    HW154658   6.098   1.199   7.428 -1.9380 -0.9566 -2.0460
18160SOL    HW254659   5.984   1.269   7.522 -0.1170 -0.8337  0.1557
18161SOL     OW54660   7.547   3.205   3.567  0.0817  0.3639 -0.1920
18161SOL    HW154661   7.575   3.139   3.497 -0.2066  1.7041 -1.6222
18161SOL    HW254662   7.540   3.158   3.655  2.9326 -0.8685 -0.4979
18162SOL     OW54663   2.097   2.921   7.506  0.9677  0.1246  0.0690
18162SOL    HW154664   2.015   2.893   7.456  1.0020 -0.3285  0.2524
18162SOL    HW254665   2.082   3.010   7.548  1.2559  0.9332 -1.4749
18163SOL     OW54666   5.851   7.872   7.281  0.2781 -0.6578 -0.1082
18163SOL    HW154667   5.765   7.894   7.236 -0.0104  3.5917  1.9366
18163SOL    HW254668   5.924   7.927   7.240  1.2454 -1.3648  0.6349
18164SOL     OW54669   2.090   5.895   3.585 -0.1243  0.2898  0.2556
18164SOL    HW154670   1.991   5.906   3.591 -0.1080  0.8814 -0.4094
18164SOL    HW254671   2.119   5.819   3.644 -0.9528  0.1819  0.5380
18165SOL     OW54672   8.700   2.102   4.419  0.2082 -0.1144 -0.1235
18165SOL    HW154673   8.752   2.028   4.463 -1.2587 -0.4584  1.1279
18165SOL    HW254674   8.637   2.142   4.486 -1.8541 -0.3843 -1.7944
18166SOL     OW54675   3.003   3.944   5.240  0.3921 -0.1241  0.0043
18166SOL    HW154676   2.968   4.036   5.220  2.8139  0.5602 -1.5056
18166SOL    HW254677   3.054   3.945   5.326  0.1141 -0.1519  0.1705
18167SOL     OW54678   7.659   4.907   2.163  0.5170 -0.0126 -0.0134
18167SOL    HW154679   7.615   4.828   2.121 -2.1117  1.7696 -0.8385
18167SOL    HW254680   7.757   4.903   2.146  0.1492 -1.8380 -2.1190
18168SOL     OW54681   7.444   5.747   1.879 -0.3539 -0.0945  0.3266
18168SOL    HW154682   7.471   5.658   1.842 -1.4390 -0.1698 -0.3294
18168SOL    HW254683   7.349   5.766   1.854  0.0236  1.4873  0.0077
18169SOL     OW54684   5.841   8.640   8.271 -0.1889 -0.0233  0.3976
18169SOL    HW154685   5.839   8.585   8.355 -1.1148 -1.2705 -0.4217
18169SOL    HW254686   5.920   8.613   8.216  1.4027  1.9516  1.5731
18170SOL     OW54687   0.132   3.198   7.548 -1.1492 -0.0482 -0.4079
18170SOL    HW154688   0.191   3.172   7.624 -1.3527  1.4901  0.2946
18170SOL    HW254689   0.139   3.128   7.476 -0.8111 -1.4354  0.9060
18171SOL     OW54690   7.452   0.292   6.837 -0.3056 -0.3614  0.3325
18171SOL    HW154691   7.438   0.376   6.785 -1.6180 -0.7514  0.0154
18171SOL    HW254692   7.465   0.313   6.933 -1.0718  0.1890  0.3235
18172SOL     OW54693   2.573   7.670   6.345 -0.3282  0.3338  0.1728
18172SOL    HW154694   2.497   7.625   6.391  0.8652 -0.6729  1.2261
18172SOL    HW254695   2.542   7.706   6.257 -2.2200  0.7342  0.9530
18173SOL     OW54696   2.103   6.936   8.860  0.1964  0.3234  0.8142
18173SOL    HW154697   2.134   7.014   8.915 -2.1879  2.8625 -1.1290
18173SOL    HW254698   2.156   6.931   8.776 -0.3992  0.5954  0.4167
18174SOL     OW54699   0.016   8.843   3.065  0.0536 -0.0311  0.1265
18174SOL    HW154700  -0.045   8.785   3.011  0.3502 -0.6139  0.4064
18174SOL    HW254701   0.084   8.885   3.006 -0.2849  0.1844 -0.1078
18175SOL     OW54702   6.335   0.725   7.363 -0.0729 -0.2706 -0.0198
18175SOL    HW154703   6.334   0.752   7.460  0.4738 -1.1422  0.2439
18175SOL    HW254704   6.253   0.760   7.318 -0.4763 -0.0839  0.8272
18176SOL     OW54705   1.373   4.270   3.614  0.7789 -0.3348 -0.2508
18176SOL    HW154706   1.304   4.204   3.643 -1.0850  1.3695 -0.6218
18176SOL    HW254707   1.375   4.347   3.677  0.1756  1.0528 -1.8378
18177SOL     OW54708   7.196   2.515   7.678  0.3267  0.0026 -0.7716
18177SOL    HW154709   7.200   2.485   7.582 -0.3203 -0.3388 -0.6992
18177SOL    HW254710   7.262   2.588   7.693  2.6135 -1.9265 -0.7661
18178SOL     OW54711   0.726   4.951   3.545 -0.2144  0.3474 -0.4440
18178SOL    HW154712   0.801   5.012   3.517 -0.2113  1.4684  1.7933
18178SOL    HW254713   0.742   4.859   3.508  3.4854 -0.0548  1.6483
18179SOL     OW54714   8.797   5.093   7.699  0.0736 -0.0343 -0.2066
18179SOL    HW154715   8.737   5.173   7.697 -0.7774 -0.6817 -1.7534
18179SOL    HW254716   8.750   5.017   7.743  0.4837 -0.0079  0.2906
18180SOL     OW54717   1.902   4.426   8.637  0.2604 -0.1746  0.5949
18180SOL    HW154718   1.938   4.455   8.548  1.8899 -0.7389  1.0404
18180SOL    HW254719   1.978   4.416   8.701 -0.7521 -1.1479  1.6654
18181SOL     OW54720   4.080   8.133   2.309 -0.1744  0.0373 -0.3013
18181SOL    HW154721   4.062   8.113   2.212 -1.4255 -1.6175  0.2279
18181SOL    HW254722   4.011   8.197   2.343 -1.4790 -1.5777  0.1817
18182SOL     OW54723   6.718   8.372   8.141  0.2871  0.3612 -0.1412
18182SOL    HW154724   6.729   8.471   8.148  0.9981  0.3103 -0.4702
18182SOL    HW254725   6.796   8.326   8.182  0.9459 -0.0318 -1.7465
18183SOL     OW54726   1.247   0.743   0.649  0.1323  0.1196  0.0029
18183SOL    HW154727   1.194   0.693   0.718 -0.5597  2.2778  1.1450
18183SOL    HW254728   1.208   0.728   0.559  0.6004 -2.1823  0.1302
18184SOL     OW54729   6.389   6.931   4.015 -0.8138 -0.6613  0.4715
18184SOL    HW154730   6.428   6.852   3.968  0.3169  1.3633 -2.2442
18184SOL    HW254731   6.290   6.934   3.999 -0.7326 -1.0588 -0.1236
18185SOL     OW54732   2.438   8.008   0.726  0.1572 -0.0157  0.1167
18185SOL    HW154733   2.536   7.989   0.721 -0.1022 -1.4142  0.1433
18185SOL    HW254734   2.394   7.982   0.641 -0.3627 -0.4375  0.5074
18186SOL     OW54735   2.400   7.255   0.195 -0.1920  0.0494  0.5647
18186SOL    HW154736   2.359   7.179   0.247  0.2423 -3.0448 -3.1726
18186SOL    HW254737   2.495   7.233   0.174  0.5957  2.6950  1.0980
18187SOL     OW54738   0.576   7.035   7.315 -0.0395  0.2675  0.4665
18187SOL    HW154739   0.658   6.982   7.295  0.3565  0.4410  1.5616
18187SOL    HW254740   0.522   6.988   7.384 -0.7181  0.3004 -0.0391
18188SOL     OW54741   7.007   2.711   7.329  0.1521 -0.4301 -0.0724
18188SOL    HW154742   7.010   2.780   7.257 -0.9537  1.4731  1.5915
18188SOL    HW254743   6.927   2.727   7.387  0.0666 -2.9209  0.6289
18189SOL     OW54744   3.737   1.597   8.148  0.1113 -0.8314  0.5879
18189SOL    HW154745   3.775   1.680   8.189 -1.0527 -0.0968  0.2235
18189SOL    HW254746   3.673   1.554   8.212 -1.0043 -0.1882 -0.0659
18190SOL     OW54747   5.980   4.549   8.297 -0.7368  0.0884 -0.4679
18190SOL    HW154748   6.057   4.542   8.360 -0.9279 -0.9624 -0.3464
18190SOL    HW254749   5.956   4.459   8.262 -0.8499  0.6094 -1.7979
18191SOL     OW54750   8.519   2.230   0.731 -0.6056 -0.0287  0.2813
18191SOL    HW154751   8.498   2.308   0.673  0.3836  0.2502  0.2850
18191SOL    HW254752   8.453   2.156   0.713 -1.8436  0.9567  0.6286
18192SOL     OW54753   7.911   1.603   8.479  0.0926  0.3889  0.3246
18192SOL    HW154754   7.823   1.596   8.525 -0.2386  3.6238  0.3840
18192SOL    HW254755   7.982   1.628   8.545  0.7726 -0.6129  0.0021
18193SOL     OW54756   3.491   6.845   5.152 -0.1497  0.6827  0.6638
18193SOL    HW154757   3.452   6.936   5.146 -2.0133 -0.0142  1.2598
18193SOL    HW254758   3.551   6.828   5.074 -1.8380  1.4981 -0.8750
18194SOL     OW54759   4.289   0.740   4.581 -0.2538 -0.8603  0.0419
18194SOL    HW154760   4.263   0.778   4.670  0.6962 -0.2350  0.0713
18194SOL    HW254761   4.381   0.701   4.587 -0.0871 -0.6068 -0.7089
18195SOL     OW54762   7.524   0.573   3.460 -0.3800  0.1004  0.5529
18195SOL    HW154763   7.535   0.635   3.537  1.5406  0.6797 -0.1175
18195SOL    HW254764   7.569   0.486   3.480 -1.6594 -0.5219  0.8519
18196SOL     OW54765   2.472   6.092   5.651  0.3335  0.2113 -0.5870
18196SOL    HW154766   2.401   6.119   5.716 -0.8821  0.8281 -2.1087
18196SOL    HW254767   2.430   6.043   5.575  1.6934 -0.2618 -1.0610
18197SOL     OW54768   8.063   1.104   3.606 -0.4915 -0.0533 -0.2435
18197SOL    HW154769   8.036   1.048   3.528  0.8643 -0.3605 -0.5169
18197SOL    HW254770   8.054   1.051   3.690 -1.0873 -0.0212 -0.2837
18198SOL     OW54771   7.817   1.262   7.280 -0.5973 -0.3089 -0.4317
18198SOL    HW154772   7.775   1.343   7.239 -0.8459 -0.0857  0.2513
18198SOL    HW254773   7.792   1.181   7.227 -2.2111 -0.2325  0.1603
18199SOL     OW54774   4.427   4.810   2.115 -0.1674 -0.6050  0.2290
18199SOL    HW154775   4.337   4.770   2.099 -0.3452 -1.1378  2.3373
18199SOL    HW254776   4.497   4.747   2.082 -0.4899  0.1538 -2.1723
18200SOL     OW54777   4.337   6.799   0.079  0.2480  0.3128 -0.5172
18200SOL    HW154778   4.435   6.814   0.069  0.1015  0.3852 -2.2260
18200SOL    HW254779   4.295   6.792  -0.012 -0.9554 -2.2114  0.1400
18201SOL     OW54780   1.024   5.127   8.619  0.6166  0.9381 -0.6065
18201SOL    HW154781   1.003   5.052   8.557  0.7141  1.2288 -0.9982
18201SOL    HW254782   0.939   5.171   8.649  0.4948  0.0846  0.3862
18202SOL     OW54783   8.164   5.616   7.625 -1.5706 -0.4683 -0.2966
18202SOL    HW154784   8.205   5.701   7.659 -0.8446 -1.3090  0.9942
18202SOL    HW254785   8.074   5.636   7.586 -2.3479  0.6259  1.8711
18203SOL     OW54786   1.156   5.018   0.251  0.5206  0.0755  0.3577
18203SOL    HW154787   1.227   5.086   0.232 -0.4891  2.1003  3.2339
18203SOL    HW254788   1.066   5.055   0.226  0.1165 -1.0709  0.0162
18204SOL     OW54789   7.013   5.677   4.646 -0.0568 -0.2961  0.4179
18204SOL    HW154790   6.939   5.645   4.704  0.4078 -1.3481  0.4369
18204SOL    HW254791   7.015   5.624   4.562 -0.2338  0.7015 -0.2436
18205SOL     OW54792   4.278   2.178   3.824 -0.0210 -0.0453  0.2596
18205SOL    HW154793   4.286   2.088   3.865  1.7839 -0.3624 -0.6650
18205SOL    HW254794   4.355   2.235   3.853 -0.0124  0.5016 -0.7621
18206SOL     OW54795   3.054   5.637   6.330 -0.0843 -0.0423 -0.1261
18206SOL    HW154796   3.033   5.646   6.233 -0.6648 -0.3277 -0.0334
18206SOL    HW254797   3.048   5.541   6.357  0.7134 -0.0513  0.0583
18207SOL     OW54798   6.409   1.066   1.482 -0.2707  0.0818  0.0123
18207SOL    HW154799   6.340   1.056   1.410  0.4248  0.2999 -0.7068
18207SOL    HW254800   6.477   0.993   1.472 -0.8706 -0.6796  1.2745
18208SOL     OW54801   8.393   3.759   4.333  0.0229  0.9806 -0.1836
18208SOL    HW154802   8.324   3.830   4.352 -0.6734  0.6204 -1.2304
18208SOL    HW254803   8.391   3.737   4.235  0.5161 -0.1894  0.0535
18209SOL     OW54804   1.025   0.335   8.792 -0.3499  0.6734  0.0079
18209SOL    HW154805   0.929   0.315   8.811 -0.2200  0.1840  0.1869
18209SOL    HW254806   1.038   0.352   8.695 -0.5042  0.0419 -0.1243
18210SOL     OW54807   1.342   6.785   7.944 -0.2933  0.5340  0.0391
18210SOL    HW154808   1.250   6.825   7.936 -0.2838  0.5551  0.0339
18210SOL    HW254809   1.410   6.854   7.918 -0.3302  0.1928 -1.0115
18211SOL     OW54810   0.584   0.742   7.792 -0.3803 -0.4303  0.1770
18211SOL    HW154811   0.586   0.655   7.741 -0.2793 -0.4950  0.2915
18211SOL    HW254812   0.662   0.798   7.764 -1.1214  0.1385 -0.8009
18212SOL     OW54813   4.499   8.001   7.720  0.6126  0.3377  0.0622
18212SOL    HW154814   4.478   8.077   7.659 -1.4328 -0.2242 -0.0280
18212SOL    HW254815   4.500   7.915   7.668 -0.1378 -0.0221  0.6058
18213SOL     OW54816   5.855   2.380   8.452 -0.1480  0.1419  0.0860
18213SOL    HW154817   5.923   2.306   8.450  0.3878  0.6376 -0.3660
18213SOL    HW254818   5.776   2.350   8.504  0.4020 -0.4585  0.6031
18214SOL     OW54819   6.228   4.148   1.364  0.3794 -0.1759  0.1402
18214SOL    HW154820   6.321   4.123   1.334  0.5603 -0.1286  0.6577
18214SOL    HW254821   6.162   4.112   1.299  0.7474 -0.4167 -0.1077
18215SOL     OW54822   0.615   5.962   0.610 -0.4329 -0.1443 -0.9264
18215SOL    HW154823   0.666   6.018   0.676 -1.3108  0.3140 -0.6224
18215SOL    HW254824   0.566   5.890   0.659 -1.6319  0.6081 -0.9762
18216SOL     OW54825   1.789   7.205   1.746  0.6393 -0.0835 -0.7098
18216SOL    HW154826   1.748   7.178   1.659  1.6760 -0.4801 -1.0882
18216SOL    HW254827   1.718   7.206   1.817 -0.6557  2.2221 -1.9307
18217SOL     OW54828   1.995   2.456   2.579 -0.4789  0.4177  0.0008
18217SOL    HW154829   1.960   2.550   2.574  1.8879  1.3523 -0.2137
18217SOL    HW254830   2.095   2.458   2.585 -0.0982 -2.1309 -2.9585
18218SOL     OW54831   4.686   5.098   8.440 -0.0338  0.3178 -0.1780
18218SOL    HW154832   4.652   5.095   8.346 -0.1624 -0.3789 -0.1169
18218SOL    HW254833   4.754   5.026   8.453  0.9624  1.2586 -0.1046
18219SOL     OW54834   8.666   1.896   2.827  0.1187 -0.0496  0.0035
18219SOL    HW154835   8.592   1.907   2.893 -1.2728 -2.2868 -1.0289
18219SOL    HW254836   8.754   1.907   2.873 -0.8124 -0.4962  2.0100
18220SOL     OW54837   8.685   3.385   1.364 -0.1593 -0.0385 -0.0255
18220SOL    HW154838   8.756   3.367   1.433 -1.6972 -1.4668  1.2534
18220SOL    HW254839   8.705   3.333   1.281 -0.4319 -1.6276  0.8577
18221SOL     OW54840   8.315   6.897   2.182 -0.1490  0.2150 -0.0280
18221SOL    HW154841   8.345   6.804   2.165  0.6663  0.2789  0.9493
18221SOL    HW254842   8.216   6.903   2.171 -0.2668 -0.8693  0.3218
18222SOL     OW54843   5.174   7.836   0.850 -0.4143  0.4191  0.4282
18222SOL    HW154844   5.155   7.832   0.752  1.8494  0.4741 -0.0807
18222SOL    HW254845   5.114   7.773   0.898 -2.3218  1.1925 -0.8413
18223SOL     OW54846   1.677   3.967   4.919  0.0891  0.2907 -0.2266
18223SOL    HW154847   1.743   4.026   4.965 -0.4564 -0.2039  1.2609
18223SOL    HW254848   1.692   3.872   4.946 -0.4633  0.0282 -0.8195
18224SOL     OW54849   1.589   6.826   3.468  0.6324 -0.2957 -0.4985
18224SOL    HW154850   1.553   6.914   3.439  1.1908  0.2036  0.2972
18224SOL    HW254851   1.606   6.769   3.387 -0.0691  0.1801 -0.9931
18225SOL     OW54852   6.155   7.305   8.376 -0.8657  0.2596 -0.7668
18225SOL    HW154853   6.186   7.388   8.329 -0.9347  0.5466 -0.3182
18225SOL    HW254854   6.112   7.331   8.463  2.3015 -0.4384  1.1539
18226SOL     OW54855   7.752   5.805   1.436  0.0097 -0.0133  0.5368
18226SOL    HW154856   7.807   5.887   1.420  0.6261 -0.5778 -0.3452
18226SOL    HW254857   7.707   5.811   1.525  0.5375  1.0010  0.7438
18227SOL     OW54858   0.970   4.979   8.160 -0.1424  0.2366 -0.3386
18227SOL    HW154859   1.020   4.902   8.199  0.6049  1.6188  1.5784
18227SOL    HW254860   0.872   4.970   8.181  0.0024  0.0362  0.2546
18228SOL     OW54861   4.219   2.740   4.743 -0.2278  0.0025  0.5739
18228SOL    HW154862   4.245   2.732   4.839  0.4926  0.4635  0.4236
18228SOL    HW254863   4.225   2.650   4.700  1.6284  0.1526  0.4367
18229SOL     OW54864   4.545   6.732   3.885 -0.5164 -0.4926  0.2982
18229SOL    HW154865   4.457   6.715   3.842 -0.2382 -0.3054 -0.3692
18229SOL    HW254866   4.616   6.733   3.815 -0.0580 -0.1075  0.7579
18230SOL     OW54867   3.501   0.710   5.900  0.5924  0.1777  0.3191
18230SOL    HW154868   3.463   0.620   5.877  0.1042  0.3356  0.5105
18230SOL    HW254869   3.594   0.716   5.864  1.4036 -1.1662  2.0641
18231SOL     OW54870   1.516   6.661   1.486 -0.2999  0.7283 -0.3390
18231SOL    HW154871   1.450   6.706   1.427  0.3076  0.3008 -1.3668
18231SOL    HW254872   1.469   6.623   1.566 -1.0309  1.8770 -0.1984
18232SOL     OW54873   5.435   6.971   6.098 -0.9186  0.1522  0.1133
18232SOL    HW154874   5.403   6.907   6.166 -1.5499  1.7448  1.3828
18232SOL    HW254875   5.366   6.984   6.027 -0.3289 -1.3748 -0.7898
18233SOL     OW54876   6.407   4.700   3.231  0.0995  0.0966  0.3581
18233SOL    HW154877   6.355   4.708   3.316 -1.1855  1.5709 -0.5283
18233SOL    HW254878   6.485   4.638   3.246 -0.6095 -0.4019  2.3293
18234SOL     OW54879   3.227   2.902   5.095 -0.3600  0.3173  0.5118
18234SOL    HW154880   3.304   2.960   5.122 -0.2035  0.6358 -0.5608
18234SOL    HW254881   3.167   2.888   5.173 -0.4942  2.0880  0.7771
18235SOL     OW54882   0.432   8.682   2.315  0.1219 -0.3041 -0.1311
18235SOL    HW154883   0.475   8.601   2.356  0.0051  0.1224  0.8617
18235SOL    HW254884   0.335   8.663   2.300 -0.1746  0.0394  1.2158
18236SOL     OW54885   3.287   4.912   4.727 -0.5167  0.6092 -0.5050
18236SOL    HW154886   3.221   4.986   4.714 -0.3304  0.6400 -1.2826
18236SOL    HW254887   3.284   4.882   4.823  0.2763  2.4632  0.1661
18237SOL     OW54888   8.615   2.022   3.622  0.9246  0.2147 -0.0952
18237SOL    HW154889   8.597   2.067   3.534  0.4077 -1.5410 -0.9356
18237SOL    HW254890   8.559   2.064   3.693 -0.2779  0.2891 -1.0486
18238SOL     OW54891   8.460   2.354   1.337 -0.5315  0.6238  0.0222
18238SOL    HW154892   8.483   2.258   1.319 -2.2312  0.0405  0.7467
18238SOL    HW254893   8.407   2.390   1.260  1.5119  1.5336 -1.0165
18239SOL     OW54894   6.441   5.291   8.059  0.1393  0.0393 -0.3731
18239SOL    HW154895   6.373   5.316   8.128  0.4444 -1.9434  0.7175
18239SOL    HW254896   6.429   5.348   7.977 -2.6495 -0.0613 -0.1107
18240SOL     OW54897   0.577   8.593   4.390 -0.1192  0.2220 -0.0839
18240SOL    HW154898   0.596   8.500   4.357 -2.6740 -0.5341  0.3901
18240SOL    HW254899   0.644   8.618   4.460 -1.0558 -2.4813  1.9387
18241SOL     OW54900   4.807   5.919   5.664 -0.1508  0.1385  0.1237
18241SOL    HW154901   4.777   5.861   5.589  1.0545 -0.4918  0.1026
18241SOL    HW254902   4.899   5.893   5.692 -0.3766  0.6927  1.4919
18242SOL     OW54903   5.459   6.448   5.179  0.1305  0.0567 -0.0828
18242SOL    HW154904   5.359   6.444   5.184  0.0016  0.1712 -1.8118
18242SOL    HW254905   5.489   6.413   5.090  1.6702 -0.3868  0.5787
18243SOL     OW54906   2.759   5.190   3.072  0.1955 -0.0123  0.5503
18243SOL    HW154907   2.779   5.273   3.124 -2.1048  1.0937 -0.1951
18243SOL    HW254908   2.836   5.169   3.012  0.2282  2.5600 -0.4364
18244SOL     OW54909   0.484   0.646   6.252 -0.1595  0.0815 -0.6283
18244SOL    HW154910   0.523   0.559   6.222  1.4214  0.1687  1.0084
18244SOL    HW254911   0.406   0.670   6.193 -1.1694 -2.8259 -0.6089
18245SOL     OW54912   0.626   5.653   3.062  0.1050 -0.1752 -0.0786
18245SOL    HW154913   0.543   5.699   3.029  0.7351  1.7805  0.8961
18245SOL    HW254914   0.606   5.609   3.150 -0.4355 -1.5928 -0.8894
18246SOL     OW54915   7.215   0.025   2.722  0.0989 -0.2664 -0.9343
18246SOL    HW154916   7.284  -0.031   2.768  0.8484 -0.6436 -2.4406
18246SOL    HW254917   7.222   0.119   2.756  1.6251 -0.2135 -1.2879
18247SOL     OW54918   8.204   1.898   5.910  0.7093 -0.3463 -0.0359
18247SOL    HW154919   8.244   1.882   5.820  1.5058  1.2764 -0.0047
18247SOL    HW254920   8.277   1.894   5.979  0.4585  0.4804  0.2824
18248SOL     OW54921   0.479   5.081   0.632  0.3392 -0.5439  0.0795
18248SOL    HW154922   0.564   5.070   0.684  0.5276  0.3123 -0.0423
18248SOL    HW254923   0.475   5.011   0.561 -0.0948 -1.9937  1.4510
18249SOL     OW54924   2.063   8.106   2.750 -1.0079  0.0972 -0.4557
18249SOL    HW154925   2.042   8.199   2.721  0.6907  0.3072 -1.1359
18249SOL    HW254926   2.154   8.103   2.791 -1.5622 -1.0428  0.7545
18250SOL     OW54927   4.072   2.363   4.365 -0.6393  0.2307 -0.2396
18250SOL    HW154928   3.980   2.402   4.353 -0.3871  0.9013 -0.0520
18250SOL    HW254929   4.090   2.298   4.292 -0.9291  0.7586 -0.7964
18251SOL     OW54930   4.375   0.062   0.619 -0.4755 -0.4959 -0.0075
18251SOL    HW154931   4.468   0.080   0.586 -0.3122 -1.1591  0.0713
18251SOL    HW254932   4.334   0.147   0.650 -0.5925  0.1414 -1.7812
18252SOL     OW54933   4.895   3.667   2.258  0.1038  0.3880 -0.6457
18252SOL    HW154934   4.845   3.744   2.218 -1.7565 -0.2596  0.3364
18252SOL    HW254935   4.912   3.686   2.355 -2.4668 -1.3253  0.2451
18253SOL     OW54936   6.939   0.991   1.284  0.6513  0.3430 -0.5490
18253SOL    HW154937   7.008   1.035   1.340  1.8305  0.7774 -2.2745
18253SOL    HW254938   6.983   0.932   1.216 -0.7303 -0.3799 -0.8620
18254SOL     OW54939   0.470   7.427   1.077 -0.3507 -0.2095 -0.3449
18254SOL    HW154940   0.425   7.498   1.022 -0.2701 -0.8068 -1.2021
18254SOL    HW254941   0.496   7.351   1.018  0.1378 -0.6793  0.4595
18255SOL     OW54942   5.954   2.115   1.412  0.6031  0.3797 -0.2691
18255SOL    HW154943   6.041   2.162   1.427  0.2099  0.5934  1.5928
18255SOL    HW254944   5.969   2.016   1.419  0.7226  0.4108 -0.0584
18256SOL     OW54945   7.010   6.941   5.503 -0.2676  0.1845  0.0220
18256SOL    HW154946   7.027   6.951   5.601 -1.6429 -0.6093  0.3697
18256SOL    HW254947   6.911   6.936   5.486 -0.0503  0.1047 -1.3826
18257SOL     OW54948   5.888   0.954   5.703 -0.7926 -0.7372 -0.4804
18257SOL    HW154949   5.945   1.027   5.742 -1.9448 -0.9915  1.8284
18257SOL    HW254950   5.820   0.995   5.642 -0.6148 -0.0160 -0.2120
18258SOL     OW54951   7.001   0.308   7.394 -0.1061 -0.6791 -0.9020
18258SOL    HW154952   6.952   0.340   7.313  0.1739  1.2122 -0.3738
18258SOL    HW254953   6.974   0.362   7.473  0.9598 -1.2999 -0.0858
18259SOL     OW54954   7.062   3.815   7.963  0.3367 -0.1110  0.2632
18259SOL    HW154955   7.123   3.877   7.913 -0.8821  1.6675  0.8892
18259SOL    HW254956   6.985   3.790   7.905  0.0670  0.1617  0.5003
18260SOL     OW54957   1.466   7.896   5.488 -0.5289 -0.5122 -0.5236
18260SOL    HW154958   1.403   7.845   5.546 -1.1547 -0.9200 -1.5465
18260SOL    HW254959   1.426   7.910   5.398 -0.0054  1.0248 -0.5552
18261SOL     OW54960   6.064   0.295   5.933 -0.2709 -0.3807 -0.5753
18261SOL    HW154961   5.965   0.307   5.939 -0.1085  1.2118 -0.5734
18261SOL    HW254962   6.086   0.199   5.918 -1.8241 -0.7077 -0.8582
18262SOL     OW54963   7.974   4.966   2.033 -0.3359  0.2203 -0.1577
18262SOL    HW154964   8.024   5.041   2.077  0.7284 -0.6713  0.1859
18262SOL    HW254965   7.900   5.004   1.978  0.7695  1.6113 -0.7644
18263SOL     OW54966   5.094   4.934   7.145  0.6419  0.2211  0.1925
18263SOL    HW154967   5.058   4.882   7.223  1.9076 -1.1708 -0.1115
18263SOL    HW254968   5.194   4.932   7.146  0.6974  1.1168 -0.8756
18264SOL     OW54969   1.581   1.430   8.719  0.1655  0.3675 -0.1466
18264SOL    HW154970   1.643   1.478   8.780 -0.1930  0.8986 -0.1957
18264SOL    HW254971   1.617   1.432   8.626  0.9473 -0.8434  0.1003
18265SOL     OW54972   2.093   3.766   4.895  0.0784  0.0280  0.3483
18265SOL    HW154973   2.130   3.850   4.934  0.0827 -0.3913  1.2658
18265SOL    HW254974   2.147   3.740   4.815 -0.7900  1.6543 -0.8182
18266SOL     OW54975   2.800   1.862   1.409  0.0209  0.4286 -0.3397
18266SOL    HW154976   2.822   1.775   1.366  0.9798  0.7655 -0.5424
18266SOL    HW254977   2.740   1.915   1.349 -1.7457 -0.6544  0.3846
18267SOL     OW54978   6.017   8.058   7.173 -0.3777  0.0377  0.3245
18267SOL    HW154979   6.107   8.089   7.205 -0.5641  0.9881 -0.0187
18267SOL    HW254980   6.016   8.057   7.073 -0.1657 -1.7995  0.3091
18268SOL     OW54981   7.395   1.165   1.780 -0.0324 -0.5284 -0.5686
18268SOL    HW154982   7.299   1.144   1.799 -0.6467  2.1946 -0.3044
18268SOL    HW254983   7.404   1.194   1.685  0.0286  1.6416  0.0641
18269SOL     OW54984   6.443   5.308   5.748  0.1163  0.1233 -0.5854
18269SOL    HW154985   6.517   5.356   5.795  2.4189 -2.5549 -1.1959
18269SOL    HW254986   6.448   5.211   5.770 -3.3644 -0.1634 -0.5948
18270SOL     OW54987   1.355   7.799   0.616  0.1595 -0.0110 -0.2883
18270SOL    HW154988   1.375   7.896   0.599 -0.3245  0.4424  1.4325
18270SOL    HW254989   1.288   7.792   0.691  0.5432 -1.6932 -0.0592
18271SOL     OW54990   2.122   6.369   6.251  0.3158  0.8607  0.1176
18271SOL    HW154991   2.164   6.437   6.190  1.1270 -0.0964 -0.4348
18271SOL    HW254992   2.054   6.316   6.199  1.2153 -0.1509 -0.0700
18272SOL     OW54993   1.533   7.585   3.827  0.0949 -0.2985  1.1030
18272SOL    HW154994   1.533   7.492   3.790 -2.0679  0.5639 -1.3754
18272SOL    HW254995   1.462   7.594   3.897  0.6595 -0.6211  1.7243
18273SOL     OW54996   0.616   7.250   4.639 -0.4261  0.1666 -0.2803
18273SOL    HW154997   0.529   7.203   4.652 -1.1764  1.6742  0.4658
18273SOL    HW254998   0.687   7.204   4.691 -0.8061 -0.9692 -0.7344
18274SOL     OW54999   5.461   4.098   7.758  0.2357 -0.1758 -0.2848
18274SOL    HW155000   5.368   4.069   7.734  0.2490  1.8561 -3.3370
18274SOL    HW255001   5.527   4.035   7.718  0.2823 -1.6858  1.9801
18275SOL     OW55002   7.979   2.000   7.448 -0.4443  0.4129 -0.3407
18275SOL    HW155003   8.016   2.081   7.402 -0.1718 -0.4945 -1.7997
18275SOL    HW255004   8.053   1.954   7.498 -0.6724  1.2298  0.7747
18276SOL     OW55005   8.598   3.375   7.435 -0.3795 -0.0503 -0.5555
18276SOL    HW155006   8.574   3.425   7.352 -1.0456  0.5113 -0.0357
18276SOL    HW255007   8.550   3.288   7.437 -0.0706 -0.2297 -0.9379
18277SOL     OW55008   1.254   3.080   8.188  0.4435  0.9944 -0.0376
18277SOL    HW155009   1.301   3.024   8.255 -0.6873 -2.4638 -1.9020
18277SOL    HW255010   1.161   3.046   8.174  0.6215  1.4570 -3.3482
18278SOL     OW55011   5.179   4.732   2.846 -0.5338 -0.3868  0.6277
18278SOL    HW155012   5.234   4.649   2.852  0.2044  0.0736  0.2547
18278SOL    HW255013   5.181   4.768   2.753 -0.2849  0.4344  0.9420
18279SOL     OW55014   4.626   2.519   7.593  0.5496  0.0063  0.3586
18279SOL    HW155015   4.624   2.435   7.538 -1.5754  0.6822 -0.6946
18279SOL    HW255016   4.659   2.595   7.537  0.5632  0.2622  0.7131
18280SOL     OW55017   4.869   8.123   2.372  0.2045 -0.0152  0.1384
18280SOL    HW155018   4.874   8.044   2.310 -0.2456  1.6089 -2.0715
18280SOL    HW255019   4.781   8.167   2.362  0.5822  0.9902  1.0858
18281SOL     OW55020   7.751   6.523   4.213 -0.2725  0.2325  0.2481
18281SOL    HW155021   7.749   6.509   4.312  1.0948 -0.7098  0.1754
18281SOL    HW255022   7.776   6.437   4.168  1.7130  1.2626 -0.7257
18282SOL     OW55023   0.963   4.825   4.974 -0.2554 -0.0598  0.1405
18282SOL    HW155024   0.976   4.745   5.031  1.5340  0.5550  0.6643
18282SOL    HW255025   0.968   4.799   4.878  1.3408 -0.4763  0.3053
18283SOL     OW55026   1.751   5.680   7.131  0.0973 -0.4263 -0.0638
18283SOL    HW155027   1.712   5.602   7.179 -0.6324  1.0302  1.8816
18283SOL    HW255028   1.829   5.715   7.183 -0.4040  0.9101 -0.1598
18284SOL     OW55029   1.382   2.150   3.361 -0.3690  0.1347 -0.4149
18284SOL    HW155030   1.347   2.147   3.455  0.0200  0.9426 -0.2322
18284SOL    HW255031   1.471   2.196   3.360  0.1821 -0.9112 -1.0296
18285SOL     OW55032   6.267   8.853   4.560  0.2045  0.5191  0.1038
18285SOL    HW155033   6.330   8.870   4.484  0.3411 -0.7843 -0.1010
18285SOL    HW255034   6.303   8.894   4.643 -1.0533  4.0485 -0.8968
18286SOL     OW55035   3.462   1.778   5.571  0.1132 -0.2514 -0.2397
18286SOL    HW155036   3.529   1.714   5.610  0.9559  1.6382  1.6769
18286SOL    HW255037   3.377   1.774   5.624 -0.2724 -0.6517 -0.8880
18287SOL     OW55038   1.657   4.322   0.860 -0.6129 -1.1570 -0.2508
18287SOL    HW155039   1.694   4.334   0.768  0.3178  1.2401  0.3680
18287SOL    HW255040   1.565   4.363   0.865  0.3964  1.1907  0.4868
18288SOL     OW55041   0.456   7.211   3.527  0.5148 -0.2745  0.2297
18288SOL    HW155042   0.368   7.203   3.573  0.3526  0.5529  0.0795
18288SOL    HW255043   0.518   7.140   3.561  0.0199 -0.4214  0.8465
18289SOL     OW55044   5.644   1.167   4.875  0.2653  0.2849 -0.0501
18289SOL    HW155045   5.742   1.147   4.878  0.3965  0.6869 -1.1475
18289SOL    HW255046   5.592   1.082   4.868  0.6457  0.1426 -1.3445
18290SOL     OW55047   5.303   5.855   8.697  0.5375 -0.2760  0.4593
18290SOL    HW155048   5.232   5.784   8.700  0.3127 -0.1707 -1.2710
18290SOL    HW255049   5.271   5.931   8.642  1.5938  0.2560  0.5625
18291SOL     OW55050   0.486   2.640   0.259 -0.0038 -0.3713 -0.3486
18291SOL    HW155051   0.397   2.627   0.304 -1.0178 -1.5122 -2.5052
18291SOL    HW255052   0.558   2.601   0.316 -0.3626  2.9250  2.7784
18292SOL     OW55053   1.799   2.766   6.931  0.2847  0.2756 -0.0743
18292SOL    HW155054   1.752   2.691   6.884 -0.8426  2.1345 -2.0834
18292SOL    HW255055   1.735   2.815   6.990  0.8657  0.0494  0.7675
18293SOL     OW55056   0.998   3.506   4.869  0.0739  0.3437  0.4602
18293SOL    HW155057   1.053   3.424   4.853 -0.2400  0.1419  0.4103
18293SOL    HW255058   1.035   3.556   4.947  1.0419  0.8339 -0.2961
18294SOL     OW55059   6.908   0.537   0.562  0.3762 -0.1395  0.5201
18294SOL    HW155060   6.861   0.602   0.623 -0.8691  1.9141 -2.4072
18294SOL    HW255061   6.870   0.446   0.577 -1.4018  0.6712  1.3595
18295SOL     OW55062   4.059   8.400   8.321 -0.4854 -0.1915  0.7788
18295SOL    HW155063   4.022   8.309   8.309  0.5714 -0.3787 -1.4873
18295SOL    HW255064   4.147   8.394   8.369 -1.1264 -0.1794  1.9973
18296SOL     OW55065   4.441   4.738   0.677  0.1402  0.0021  0.3740
18296SOL    HW155066   4.411   4.706   0.767  0.2498  0.2181  0.4876
18296SOL    HW255067   4.365   4.785   0.632 -0.2810 -1.1570 -0.1463
18297SOL     OW55068   4.095   6.134   0.256  0.4000 -0.4286 -0.1643
18297SOL    HW155069   4.190   6.123   0.286  0.2073  0.7300  0.9424
18297SOL    HW255070   4.047   6.195   0.318 -0.9817 -0.6853 -0.9358
18298SOL     OW55071   5.442   4.552   5.677  0.0540  0.0112 -0.5002
18298SOL    HW155072   5.456   4.591   5.586 -0.8055 -0.1185 -0.6989
18298SOL    HW255073   5.346   4.524   5.686  0.4158 -1.1361 -0.0081
18299SOL     OW55074   5.281   2.317   1.122 -0.5196 -0.5302 -0.3327
18299SOL    HW155075   5.234   2.344   1.206  2.4620  0.2374  1.2116
18299SOL    HW255076   5.324   2.397   1.080  2.7666 -1.6322  0.6193
18300SOL     OW55077   4.657   3.073   4.976 -0.0692 -0.2275  0.0856
18300SOL    HW155078   4.749   3.033   4.980  1.3265  2.0718 -3.3238
18300SOL    HW255079   4.653   3.154   5.034 -0.3781 -1.0128  1.1747
18301SOL     OW55080   8.629   6.153   2.729  0.5572 -0.9303 -0.0133
18301SOL    HW155081   8.541   6.189   2.698  0.3669 -0.1072  1.3744
18301SOL    HW255082   8.696   6.158   2.655 -0.1940 -0.2288 -0.6607
18302SOL     OW55083   3.797   1.026   3.104  0.2067  0.3460  0.1520
18302SOL    HW155084   3.857   1.063   3.033  0.6066  0.9751  0.8018
18302SOL    HW255085   3.748   0.946   3.068 -0.1488  1.0839 -1.0474
18303SOL     OW55086   8.417   3.065   5.907  0.0422  0.3600 -0.0306
18303SOL    HW155087   8.419   2.986   5.847 -0.0647  2.1854 -2.6056
18303SOL    HW255088   8.366   3.043   5.990 -1.8918 -1.6204 -1.6325
18304SOL     OW55089   3.470   3.383   0.017 -0.4544  0.0703 -0.3828
18304SOL    HW155090   3.448   3.297  -0.029 -0.3519 -1.3789  2.1117
18304SOL    HW255091   3.552   3.423  -0.024  1.1770 -2.5075  0.1319
18305SOL     OW55092   5.968   5.608   4.802  0.1543 -0.3704 -0.3717
18305SOL    HW155093   5.920   5.639   4.720  0.0002  0.2809 -0.0410
18305SOL    HW255094   6.057   5.654   4.808  0.2594 -0.5819 -0.2868
18306SOL     OW55095   5.933   4.815   7.731  0.5168 -0.1302 -0.2655
18306SOL    HW155096   5.877   4.813   7.649 -0.8797 -1.7543  0.6465
18306SOL    HW255097   6.030   4.809   7.706  0.2121  0.8962 -1.8131
18307SOL     OW55098   7.793   8.854   5.649  0.0301 -0.1734 -0.5641
18307SOL    HW155099   7.876   8.909   5.644 -0.4631  0.4660 -2.8095
18307SOL    HW255100   7.740   8.864   5.564 -1.5867 -1.7682  0.1681
18308SOL     OW55101   4.245   7.377   4.536  0.4358  0.1058  0.6237
18308SOL    HW155102   4.239   7.322   4.453  0.4664  0.8025  0.1452
18308SOL    HW255103   4.271   7.471   4.512  0.2218  0.3735  1.3988
18309SOL     OW55104   0.998   8.359   6.892 -0.2779  0.3996 -0.8753
18309SOL    HW155105   0.939   8.375   6.971 -1.1057  1.7691 -1.7514
18309SOL    HW255106   1.030   8.264   6.894 -2.0345 -0.2127 -0.0778
18310SOL     OW55107   2.696   8.181   8.358 -0.3567 -0.2575  0.1222
18310SOL    HW155108   2.678   8.144   8.266  0.0600  2.8646 -1.3434
18310SOL    HW255109   2.626   8.248   8.381 -0.0431 -0.4767  1.7999
18311SOL     OW55110   1.118   2.022   3.889 -0.0761 -0.4053  0.3331
18311SOL    HW155111   1.084   1.938   3.931 -1.2956 -0.9236 -1.5851
18311SOL    HW255112   1.113   2.096   3.957  0.7522 -1.7632  1.9600
18312SOL     OW55113   2.822   7.578   6.476  0.2429  0.1332  0.5385
18312SOL    HW155114   2.732   7.614   6.453  0.3290  0.1648  0.2410
18312SOL    HW255115   2.871   7.645   6.532 -0.0577 -0.0446  1.0185
18313SOL     OW55116   7.462   6.400   5.565  0.0266  0.8607 -0.4513
18313SOL    HW155117   7.554   6.365   5.579 -0.5505 -0.2785  0.7316
18313SOL    HW255118   7.428   6.372   5.476 -0.4193 -1.7213  0.4486
18314SOL     OW55119   1.815   6.146   7.478 -0.0530  0.7703  0.1727
18314SOL    HW155120   1.748   6.205   7.522  0.1580  1.4474 -0.3972
18314SOL    HW255121   1.905   6.162   7.517 -0.1909 -0.0986  0.8970
18315SOL     OW55122   2.071   1.039   6.965 -0.1240 -0.1441  0.3581
18315SOL    HW155123   2.022   1.003   6.886  0.0917  1.3028 -0.4632
18315SOL    HW255124   2.005   1.057   7.039 -0.6962  0.6401 -0.3103
18316SOL     OW55125   8.833   1.385   4.570  0.1457 -0.4596  0.4331
18316SOL    HW155126   8.794   1.339   4.490 -1.0936  0.9968  0.1458
18316SOL    HW255127   8.816   1.483   4.563 -0.2730 -0.3194  2.6198
18317SOL     OW55128   4.802   6.939   1.732  0.2053  0.2254 -0.3324
18317SOL    HW155129   4.862   6.942   1.652 -1.2147  1.7207 -1.3871
18317SOL    HW255130   4.760   7.029   1.746 -2.4272 -0.9742 -0.1185
18318SOL     OW55131   0.976   1.756   7.061  0.2506 -0.1250 -0.1588
18318SOL    HW155132   1.060   1.703   7.076  0.1739  0.1131  1.3120
18318SOL    HW255133   0.896   1.697   7.076  0.1407 -0.2414 -1.1318
18319SOL     OW55134   2.133   2.547   8.764  0.0489  0.3514 -0.3164
18319SOL    HW155135   2.083   2.525   8.681  1.2944 -1.9417 -0.5619
18319SOL    HW255136   2.222   2.501   8.762  0.3255  0.6467  2.0480
18320SOL     OW55137   5.765   0.021   7.826  0.0044  0.6862 -0.0782
18320SOL    HW155138   5.858  -0.009   7.847 -0.8481 -3.5502 -1.4085
18320SOL    HW255139   5.758   0.045   7.729 -0.2873  1.1644  0.0536
18321SOL     OW55140   3.312   4.863   4.254  0.3621  0.3550 -0.6297
18321SOL    HW155141   3.317   4.804   4.335  3.8932  1.5748  0.2051
18321SOL    HW255142   3.270   4.950   4.280  1.6407  0.8076 -0.0328
18322SOL     OW55143   0.854   2.624   0.437 -0.0997  0.4956 -0.0988
18322SOL    HW155144   0.777   2.564   0.419 -0.6238  1.1118  0.0446
18322SOL    HW255145   0.911   2.630   0.355 -0.3454  0.2444 -0.2896
18323SOL     OW55146   2.352   4.694   5.555  0.4057 -0.2766  0.6904
18323SOL    HW155147   2.451   4.702   5.571  0.9813 -0.5369 -2.2016
18323SOL    HW255148   2.330   4.732   5.466 -1.4106 -3.8860 -0.5946
18324SOL     OW55149   8.734   6.537   3.671  0.0728  0.6244  0.2122
18324SOL    HW155150   8.823   6.582   3.682  0.5412  0.4844 -2.3828
18324SOL    HW255151   8.744   6.458   3.611 -1.6381 -0.0662  0.7693
18325SOL     OW55152   0.961   5.821   0.711 -0.0039  0.7715 -0.1110
18325SOL    HW155153   1.027   5.893   0.690  2.8259 -1.7978 -0.6573
18325SOL    HW255154   0.910   5.797   0.629 -0.0185  1.2382 -0.2406
18326SOL     OW55155   3.686   6.676   3.688  0.2534  0.0129  0.2720
18326SOL    HW155156   3.719   6.685   3.782  1.3834  1.2815 -0.2066
18326SOL    HW255157   3.633   6.757   3.663 -2.4932 -1.5355  0.6746
18327SOL     OW55158   1.627   4.900   7.463  0.3060 -0.0429  0.2771
18327SOL    HW155159   1.529   4.912   7.444  0.3101 -1.3875 -0.7313
18327SOL    HW255160   1.668   4.843   7.392  1.6816 -0.0839  1.0701
18328SOL     OW55161   2.565   1.012   2.773  0.1017 -0.0122  0.2003
18328SOL    HW155162   2.661   1.014   2.801  0.5919 -0.8175 -1.2957
18328SOL    HW255163   2.517   0.939   2.822  0.0107  0.9640  1.6075
18329SOL     OW55164   2.704   4.932   1.241  0.1199 -0.3413 -0.2418
18329SOL    HW155165   2.720   5.020   1.286 -0.2281 -1.5819  2.5263
18329SOL    HW255166   2.612   4.900   1.264  0.7343 -2.0463 -0.0426
18330SOL     OW55167   6.130   5.228   1.508  0.2655  1.0396 -0.5177
18330SOL    HW155168   6.214   5.221   1.562 -0.4982 -0.4682  0.5524
18330SOL    HW255169   6.108   5.139   1.469 -2.7257  0.3607  2.2684
18331SOL     OW55170   6.930   3.729   8.736 -0.5443 -0.8042 -0.3745
18331SOL    HW155171   7.007   3.697   8.792 -0.2804  0.5791  0.1161
18331SOL    HW255172   6.858   3.765   8.796  0.5249  2.4699 -0.8135
18332SOL     OW55173   2.888   4.038   8.636 -0.3699 -0.0073 -0.1835
18332SOL    HW155174   2.957   4.110   8.640 -0.1454 -0.1886 -0.7397
18332SOL    HW255175   2.820   4.054   8.707  0.5953 -0.2025  0.8000
18333SOL     OW55176   8.278   4.183   4.221  0.7280  0.1122 -0.5765
18333SOL    HW155177   8.271   4.126   4.139  0.6817  1.9284 -1.9073
18333SOL    HW255178   8.198   4.241   4.228  1.7866  1.6338 -0.5743
18334SOL     OW55179   3.061   6.658   7.241 -0.3820 -0.4161  0.4139
18334SOL    HW155180   3.029   6.739   7.192  1.9867  1.6561  2.0034
18334SOL    HW255181   2.988   6.591   7.246 -1.5117  0.2365 -3.6560
18335SOL     OW55182   2.216   0.769   3.488  0.1304  0.3684  0.9176
18335SOL    HW155183   2.273   0.826   3.547  0.3886  0.1653  0.8641
18335SOL    HW255184   2.130   0.816   3.470  1.5049  2.1427 -1.6162
18336SOL     OW55185   6.823   7.428   6.519 -0.0511  0.2431 -0.3948
18336SOL    HW155186   6.859   7.347   6.472  0.8818 -0.8577  2.0689
18336SOL    HW255187   6.899   7.487   6.547 -0.7135  2.0036 -2.0299
18337SOL     OW55188   6.157   8.860   3.170 -0.6635  0.2336 -0.0070
18337SOL    HW155189   6.244   8.883   3.212 -0.4547  0.1088 -0.3729
18337SOL    HW255190   6.131   8.932   3.105 -0.8656  0.3025  0.1468
18338SOL     OW55191   1.903   0.520   8.758 -0.0166 -0.1942 -0.1214
18338SOL    HW155192   1.937   0.428   8.775 -2.0059 -1.3127 -1.8094
18338SOL    HW255193   1.804   0.522   8.769  0.1320  2.2511  1.7487
18339SOL     OW55194   4.850   8.829   6.023 -0.0403  0.3297 -0.5729
18339SOL    HW155195   4.875   8.738   5.991  0.0054 -0.0261  0.4336
18339SOL    HW255196   4.785   8.871   5.960 -1.5696 -1.1754 -0.0488
18340SOL     OW55197   2.732   0.324   3.256 -0.4923  0.1892 -0.0069
18340SOL    HW155198   2.709   0.418   3.230 -1.0996 -0.1035 -0.5333
18340SOL    HW255199   2.827   0.306   3.232 -0.9289  0.0309 -1.7854
18341SOL     OW55200   7.890   6.579   5.215 -0.2116 -0.2781 -0.3316
18341SOL    HW155201   7.827   6.651   5.244  0.4351 -0.0296  0.4794
18341SOL    HW255202   7.971   6.621   5.172  0.6291 -0.4444  1.0353
18342SOL     OW55203   6.131   0.603   2.958 -0.7242 -0.2319  0.3930
18342SOL    HW155204   6.182   0.666   2.899 -1.3500 -0.0237  0.0613
18342SOL    HW255205   6.039   0.589   2.919 -1.8822  1.4227  2.2995
18343SOL     OW55206   8.842   4.672   4.484 -0.1991  0.1633 -0.1732
18343SOL    HW155207   8.903   4.702   4.410  0.3230 -0.8224 -0.1640
18343SOL    HW255208   8.779   4.603   4.449 -0.6483  0.4524  0.0599
18344SOL     OW55209   2.714   5.770   8.408  0.0401 -0.2958  0.3817
18344SOL    HW155210   2.797   5.715   8.396  0.2135 -0.0796  0.5648
18344SOL    HW255211   2.638   5.711   8.435  0.5929 -0.2650  2.1679
18345SOL     OW55212   4.281   6.673   1.874 -0.2580 -0.3916 -0.3563
18345SOL    HW155213   4.359   6.721   1.914 -0.6979  1.3749 -1.5138
18345SOL    HW255214   4.263   6.709   1.782 -3.2545  0.2590  0.3686
18346SOL     OW55215   5.619   0.236   1.742 -0.2891  0.0317 -0.5271
18346SOL    HW155216   5.703   0.212   1.791  0.0666 -0.8557 -1.5262
18346SOL    HW255217   5.601   0.168   1.671 -0.5012  1.5459 -1.9912
18347SOL     OW55218   6.899   2.476   4.395  0.0731  0.4400 -0.5857
18347SOL    HW155219   6.869   2.572   4.389 -0.2440  0.3580 -0.2756
18347SOL    HW255220   6.820   2.416   4.401  0.2888  0.1904 -0.2182
18348SOL     OW55221   6.494   0.572   6.322 -0.4545 -0.1606  0.6956
18348SOL    HW155222   6.418   0.574   6.258  0.5577 -0.9053 -0.5717
18348SOL    HW255223   6.473   0.509   6.397 -0.3371 -1.8334 -0.6423
18349SOL     OW55224   3.620   3.509   1.174  0.0723  0.5348 -0.2147
18349SOL    HW155225   3.590   3.433   1.118 -2.0013  1.4269 -0.4011
18349SOL    HW255226   3.654   3.583   1.116 -0.8673  0.9487 -0.2675
18350SOL     OW55227   5.599   0.393   0.240 -0.2219 -0.1370  0.9277
18350SOL    HW155228   5.582   0.357   0.332  1.0859 -1.0161  0.8462
18350SOL    HW255229   5.614   0.318   0.176 -0.7430  0.4775  0.0546
18351SOL     OW55230   5.929   7.725   1.537 -0.4045  0.2210  0.0133
18351SOL    HW155231   5.877   7.788   1.595 -1.4416 -1.4072  0.9443
18351SOL    HW255232   5.890   7.633   1.545  0.7875 -0.4780 -1.6261
18352SOL     OW55233   3.854   4.180   8.347  0.1695  0.4671 -0.1437
18352SOL    HW155234   3.858   4.274   8.313 -2.4634  0.3342 -1.0299
18352SOL    HW255235   3.814   4.180   8.438 -0.2251  0.1878 -0.3157
18353SOL     OW55236   3.162   5.872   0.297  0.2367 -0.4789  0.6461
18353SOL    HW155237   3.211   5.784   0.297 -0.4683 -0.8825 -0.3958
18353SOL    HW255238   3.081   5.865   0.356  0.1514 -0.5401  0.5208
18354SOL     OW55239   1.415   5.486   6.309 -0.6075  0.1054 -0.2287
18354SOL    HW155240   1.375   5.572   6.340  0.7411  0.3043  1.0450
18354SOL    HW255241   1.499   5.505   6.258 -0.6656 -0.4302 -0.5288
18355SOL     OW55242   3.774   4.893   5.528 -0.3275  0.6759  0.4338
18355SOL    HW155243   3.786   4.851   5.618  0.3513 -0.2802 -0.0874
18355SOL    HW255244   3.787   4.823   5.457 -0.1699  1.5700 -0.4263
18356SOL     OW55245   2.131   0.300   6.769 -0.7085  0.0447 -0.3996
18356SOL    HW155246   2.159   0.205   6.756 -0.8850  0.0367 -0.7266
18356SOL    HW255247   2.046   0.302   6.823 -2.1449 -0.1372 -2.5074
18357SOL     OW55248   4.140   8.554   0.552 -0.2539 -0.2008  0.2987
18357SOL    HW155249   4.051   8.510   0.546 -1.0832  1.5189 -1.0115
18357SOL    HW255250   4.141   8.619   0.627 -0.1309 -0.1422  0.2470
18358SOL     OW55251   1.800   7.223   8.469  0.0467 -0.1673  0.2671
18358SOL    HW155252   1.873   7.155   8.465 -1.0685 -1.3617 -1.8761
18358SOL    HW255253   1.746   7.210   8.552  3.0013  1.6804  2.6644
18359SOL     OW55254   0.792   1.571   4.780 -0.5967 -0.4046  0.1337
18359SOL    HW155255   0.713   1.632   4.774 -1.2068 -1.2764 -0.9034
18359SOL    HW255256   0.772   1.497   4.845 -0.5945 -0.5681 -0.0512
18360SOL     OW55257   7.130   4.545   3.958  0.1630 -0.4128  0.4377
18360SOL    HW155258   7.177   4.507   3.878 -0.3033 -1.6213  0.7230
18360SOL    HW255259   7.040   4.505   3.967 -0.0839  0.2655  1.1620
18361SOL     OW55260   6.108   1.248   2.922  0.6115 -0.0437  0.3824
18361SOL    HW155261   6.027   1.306   2.912 -1.1965 -2.1117  2.2344
18361SOL    HW255262   6.137   1.246   3.017  3.5416  1.3886 -0.3448
18362SOL     OW55263   7.008   0.029   4.415  0.0529 -0.5594 -0.5550
18362SOL    HW155264   6.920  -0.002   4.449  0.8533  0.2992  2.6834
18362SOL    HW255265   7.055  -0.046   4.369 -0.8471 -2.1351  0.9994
18363SOL     OW55266   4.029   4.734   8.149  0.1489 -0.0121  0.0789
18363SOL    HW155267   3.983   4.697   8.230  0.9045 -1.7020 -0.2271
18363SOL    HW255268   4.092   4.666   8.113  0.0049  0.8013 -1.7946
18364SOL     OW55269   6.431   3.246   7.164  0.2414 -0.1016 -0.3003
18364SOL    HW155270   6.345   3.243   7.214  0.8205  0.2249  0.7283
18364SOL    HW255271   6.457   3.153   7.136 -0.6517 -0.1542 -1.0107
18365SOL     OW55272   2.502   8.196   4.097  0.7643  0.1488 -0.5213
18365SOL    HW155273   2.602   8.195   4.083  0.6859  2.7306 -1.7429
18365SOL    HW255274   2.480   8.256   4.173  0.1346 -1.0796  0.2995
18366SOL     OW55275   4.661   7.752   1.498 -0.2625 -0.2246 -0.5147
18366SOL    HW155276   4.757   7.779   1.503 -0.6022  0.9336  0.0429
18366SOL    HW255277   4.608   7.824   1.451 -1.4351  0.8656  2.2759
18367SOL     OW55278   1.891   6.533   7.650  0.7346 -0.2321 -0.6378
18367SOL    HW155279   1.813   6.471   7.654 -1.3658  2.3074  0.2556
18367SOL    HW255280   1.913   6.553   7.555 -1.4735  1.0158 -0.9488
18368SOL     OW55281   2.440   2.696   0.822 -0.0193  0.1916 -0.4149
18368SOL    HW155282   2.472   2.691   0.916 -0.0255 -1.2164 -0.4720
18368SOL    HW255283   2.410   2.790   0.802  0.0274  0.5185  0.9540
18369SOL     OW55284   0.070   6.971   6.327 -0.0110  0.5031 -0.3272
18369SOL    HW155285   0.040   6.964   6.422  0.9854  0.4675 -0.0052
18369SOL    HW255286  -0.009   6.962   6.266 -0.5518 -0.2852  0.4722
18370SOL     OW55287   0.395   0.383   2.624 -0.2623  0.2532  0.5563
18370SOL    HW155288   0.325   0.311   2.632  1.3801 -1.4828  0.1680
18370SOL    HW255289   0.367   0.448   2.553 -2.5715  1.0259  2.0414
18371SOL     OW55290   8.559   8.290   0.828 -0.0030 -0.0021  0.0836
18371SOL    HW155291   8.490   8.222   0.804 -0.2927 -0.2102  1.4324
18371SOL    HW255292   8.514   8.374   0.859  0.3607  0.4384 -0.5389
18372SOL     OW55293   0.601   1.417   5.577  0.6616  0.4080 -0.4716
18372SOL    HW155294   0.632   1.325   5.601 -0.2995  0.4468  0.9958
18372SOL    HW255295   0.620   1.434   5.480  1.4907 -1.0605 -0.5925
18373SOL     OW55296   2.731   2.856   0.683  0.1500  0.0631 -0.5192
18373SOL    HW155297   2.715   2.935   0.742 -0.8464 -1.1127  0.8489
18373SOL    HW255298   2.790   2.790   0.730 -1.7923 -1.5309 -0.2176
18374SOL     OW55299   0.545   8.200   0.343  0.3084  0.1077  0.4921
18374SOL    HW155300   0.605   8.208   0.423  0.0275 -0.0943  0.7221
18374SOL    HW255301   0.537   8.104   0.316  1.4201  0.2780 -0.5578
18375SOL     OW55302   5.349   7.591   1.408  0.2403  0.1334 -0.1794
18375SOL    HW155303   5.432   7.644   1.425 -0.2015  0.9153 -0.4111
18375SOL    HW255304   5.351   7.507   1.462  0.2228  1.1385  1.4387
18376SOL     OW55305   2.374   3.945   6.588  0.9003 -0.6756  0.2121
18376SOL    HW155306   2.292   3.996   6.562  1.5205 -0.3507 -1.1888
18376SOL    HW255307   2.431   4.001   6.648  2.2467  0.9349 -2.3936
18377SOL     OW55308   2.558   4.688   7.631 -0.2575  0.0010  0.0084
18377SOL    HW155309   2.490   4.683   7.704 -0.5422 -0.2048 -0.2689
18377SOL    HW255310   2.558   4.781   7.593  0.1145  0.1982  0.4779
18378SOL     OW55311   3.935   3.794   8.123  0.3192  1.0460 -0.3484
18378SOL    HW155312   3.864   3.831   8.063 -1.7763 -1.0307  0.6796
18378SOL    HW255313   3.996   3.736   8.069 -2.3406 -1.9266 -0.5138
18379SOL     OW55314   2.610   5.739   0.614  0.1538 -0.0297 -0.4435
18379SOL    HW155315   2.702   5.707   0.596 -0.4567 -1.7382 -0.6882
18379SOL    HW255316   2.544   5.678   0.571 -1.1131  0.7344  0.3407
18380SOL     OW55317   6.134   7.873   2.643 -0.2878  0.1679  0.4351
18380SOL    HW155318   6.079   7.903   2.720  0.0064  0.9043  0.3656
18380SOL    HW255319   6.099   7.915   2.559 -0.2737 -0.1984  0.2454
18381SOL     OW55320   7.380   7.860   5.530  0.3206  0.2683 -0.1400
18381SOL    HW155321   7.381   7.760   5.519 -1.4957  0.2256 -0.1679
18381SOL    HW255322   7.302   7.887   5.587  0.1169  1.7562 -1.0702
18382SOL     OW55323   1.452   5.983   7.836  0.3460 -0.1592  0.0275
18382SOL    HW155324   1.525   5.963   7.771 -0.0028  0.7026 -0.6681
18382SOL    HW255325   1.445   5.910   7.904  0.1970 -1.5153 -1.3860
18383SOL     OW55326   7.424   7.287   0.939 -0.4821 -0.1405  0.1229
18383SOL    HW155327   7.340   7.285   0.883 -0.4875  1.3573  0.0292
18383SOL    HW255328   7.480   7.365   0.911  0.7794 -0.9093  0.4476
18384SOL     OW55329   0.935   3.197   3.945 -0.5318  0.5492  0.0929
18384SOL    HW155330   0.858   3.167   3.889 -0.1603 -0.6837  0.2124
18384SOL    HW255331   1.019   3.155   3.911  0.1586  2.0915 -0.2117
18385SOL     OW55332   2.278   8.124   3.492 -0.2474 -0.0602 -0.3245
18385SOL    HW155333   2.325   8.113   3.405 -1.7812  0.8593 -1.3161
18385SOL    HW255334   2.196   8.180   3.479 -0.3767  0.3326  1.7643
18386SOL     OW55335   5.214   7.912   7.083  0.0652 -0.6481 -0.5244
18386SOL    HW155336   5.178   8.000   7.052 -0.1549 -1.3102 -2.2350
18386SOL    HW255337   5.310   7.904   7.056  1.0427  0.2495  2.2404
18387SOL     OW55338   3.000   8.077   1.128  0.1343 -0.0442 -0.0829
18387SOL    HW155339   3.052   8.016   1.188  1.2930 -0.1677 -1.1530
18387SOL    HW255340   3.049   8.163   1.117 -1.1276  0.8260  0.8256
18388SOL     OW55341   8.670   6.439   0.332  0.0073 -0.1307  0.2440
18388SOL    HW155342   8.764   6.458   0.360  0.0681  1.0333 -0.6784
18388SOL    HW255343   8.671   6.384   0.248 -0.1441 -0.5725  0.5303
18389SOL     OW55344   2.302   1.442   8.640 -0.3385 -0.3063  0.6318
18389SOL    HW155345   2.378   1.468   8.581  0.2175 -0.0765  1.4394
18389SOL    HW255346   2.255   1.362   8.601  0.9169 -1.0580  0.6327
18390SOL     OW55347   4.352   5.571   1.634  0.1700 -0.6697  0.2421
18390SOL    HW155348   4.362   5.512   1.555  1.9115 -0.2435  0.1028
18390SOL    HW255349   4.412   5.651   1.625 -0.6552  0.1241  1.3326
18391SOL     OW55350   5.829   1.783   7.907  0.0676  0.2189 -0.4169
18391SOL    HW155351   5.916   1.811   7.948  1.5082  1.4022 -3.8659
18391SOL    HW255352   5.815   1.685   7.924  1.4927  0.2342  1.1511
18392SOL     OW55353   6.223   7.842   7.425  0.3145  0.6875 -0.2088
18392SOL    HW155354   6.134   7.798   7.416  1.0232 -0.9036  0.3159
18392SOL    HW255355   6.269   7.844   7.336  0.7686 -0.7597 -0.0339
18393SOL     OW55356   4.997   0.733   5.763  0.1147 -0.0116 -0.3184
18393SOL    HW155357   5.021   0.666   5.833  0.1684  0.2339 -0.1018
18393SOL    HW255358   4.903   0.716   5.731  1.0633 -1.9774 -2.3208
18394SOL     OW55359   2.092   2.070   6.986 -1.0035 -0.4288  0.6173
18394SOL    HW155360   2.175   2.125   6.972 -1.1256 -0.1697  0.9078
18394SOL    HW255361   2.012   2.125   6.960 -0.9653 -1.4898 -2.1283
18395SOL     OW55362   2.541   0.628   4.231  0.2171  0.0009 -0.8826
18395SOL    HW155363   2.554   0.532   4.209 -0.7052 -0.3178 -0.1428
18395SOL    HW255364   2.443   0.647   4.236  0.3918  1.0226 -1.1819
18396SOL     OW55365   3.815   1.817   5.040  0.3216 -0.6742 -0.2609
18396SOL    HW155366   3.811   1.852   4.946  0.8265 -0.3278 -0.1562
18396SOL    HW255367   3.897   1.851   5.084  0.5288 -1.5379  0.0321
18397SOL     OW55368   4.832   4.353   3.331  0.0604  0.0463 -0.8766
18397SOL    HW155369   4.917   4.300   3.323  0.0401  0.1570 -1.9017
18397SOL    HW255370   4.853   4.447   3.356  0.1479 -0.2418  0.1733
18398SOL     OW55371   2.582   1.987   5.009 -0.3255  0.1190 -0.1697
18398SOL    HW155372   2.491   1.989   5.050 -0.7405  3.3608 -0.9672
18398SOL    HW255373   2.651   2.003   5.080  0.0557 -4.5391  0.8738
18399SOL     OW55374   7.585   1.192   3.468 -0.0733  0.5967  0.3647
18399SOL    HW155375   7.503   1.212   3.522 -0.0790  0.0159  0.5774
18399SOL    HW255376   7.664   1.237   3.509 -0.5085  2.4156 -0.6788
18400SOL     OW55377   4.004   0.768   2.525  0.3292 -0.0061 -0.7472
18400SOL    HW155378   4.065   0.843   2.551 -1.1333  1.1882 -0.6218
18400SOL    HW255379   3.963   0.788   2.436  2.6697 -2.4372 -2.5489
18401SOL     OW55380   6.994   3.121   7.387 -0.2678  0.3038  0.0240
18401SOL    HW155381   6.932   3.199   7.373 -0.5058  0.3152  1.0457
18401SOL    HW255382   6.984   3.057   7.312 -1.2152  0.5154 -0.0457
18402SOL     OW55383   4.616   7.477   8.749 -0.3626 -0.2841 -0.3646
18402SOL    HW155384   4.691   7.542   8.753  0.9456 -1.7947  1.4067
18402SOL    HW255385   4.571   7.483   8.660  0.4745  2.1238 -0.7059
18403SOL     OW55386   6.882   3.931   4.667  0.1230  0.7064  0.1311
18403SOL    HW155387   6.877   3.864   4.592 -1.5377  0.3686  0.4963
18403SOL    HW255388   6.891   4.023   4.629 -0.8050  0.5485 -0.5114
18404SOL     OW55389   3.638   3.425   6.618 -0.1615 -0.4028 -0.3229
18404SOL    HW155390   3.567   3.495   6.627  0.1237 -0.0053 -1.0766
18404SOL    HW255391   3.701   3.430   6.696 -0.6583 -0.4116  0.0770
18405SOL     OW55392   7.995   4.722   3.924 -0.2158  0.0719 -0.5544
18405SOL    HW155393   7.961   4.799   3.870  1.3939  0.8762 -0.4791
18405SOL    HW255394   8.095   4.721   3.922 -0.1091 -0.2642  1.8747
18406SOL     OW55395   8.081   7.979   4.327  0.4977 -0.1407 -0.1441
18406SOL    HW155396   8.080   7.912   4.400  1.5807 -1.2295 -1.0835
18406SOL    HW255397   8.154   7.958   4.263 -0.7560  0.4347 -1.8616
18407SOL     OW55398   2.577   4.698   0.700  0.5523 -0.3959  0.1566
18407SOL    HW155399   2.638   4.777   0.711  1.5408 -1.0449 -0.5974
18407SOL    HW255400   2.514   4.695   0.778  0.0628  1.5004 -0.1086
18408SOL     OW55401   0.049   7.356   5.256 -0.1046  0.3416  0.3074
18408SOL    HW155402  -0.012   7.436   5.254  2.1026  2.1205 -0.9274
18408SOL    HW255403   0.071   7.329   5.163  0.7451 -0.4505  0.7329
18409SOL     OW55404   0.997   8.079   7.911 -0.1928 -0.5469  0.0565
18409SOL    HW155405   1.088   8.078   7.952  0.2351 -0.7512 -0.8895
18409SOL    HW255406   0.935   8.131   7.970  1.4244  3.0586 -1.1355
18410SOL     OW55407   6.649   3.334   0.470 -0.0888 -0.1593 -0.2142
18410SOL    HW155408   6.624   3.428   0.447  0.5980 -0.5510 -2.8760
18410SOL    HW255409   6.576   3.272   0.442  0.4266 -0.6089 -0.5771
18411SOL     OW55410   0.726   1.491   2.046 -0.3093 -0.3795 -0.0407
18411SOL    HW155411   0.808   1.463   1.996 -1.0763 -0.5536 -1.2546
18411SOL    HW255412   0.751   1.527   2.136  1.0808 -0.4617 -0.3850
18412SOL     OW55413   3.314   8.201   1.276 -0.5535  0.2029 -0.2112
18412SOL    HW155414   3.334   8.195   1.374 -1.6555  1.0570  0.0970
18412SOL    HW255415   3.258   8.282   1.259 -0.3402  0.0863 -1.5625
18413SOL     OW55416   4.637   3.565   5.208  0.0857  0.5626 -0.2061
18413SOL    HW155417   4.619   3.514   5.292  0.9988  2.0525  0.9504
18413SOL    HW255418   4.571   3.539   5.138 -2.6960  1.5007  1.9205
18414SOL     OW55419   1.217   0.197   4.432  0.7436 -0.0247 -0.0561
18414SOL    HW155420   1.232   0.106   4.470  0.0788  0.3197  1.1013
18414SOL    HW255421   1.150   0.192   4.357  1.5694 -0.6249 -0.7719
18415SOL     OW55422   0.871   1.009   2.816 -0.8098 -0.5068  0.4778
18415SOL    HW155423   0.950   1.070   2.827 -1.0846 -0.2049  0.8139
18415SOL    HW255424   0.871   0.972   2.724  0.2107 -1.1988  0.7355
18416SOL     OW55425   3.377   7.162   2.998 -0.3036 -0.0930  0.2068
18416SOL    HW155426   3.345   7.242   3.049 -2.0783 -0.3308 -0.4753
18416SOL    HW255427   3.432   7.192   2.920 -0.1717  0.3996  0.4832
18417SOL     OW55428   5.206   0.913   7.427  0.0534  0.0901  0.3648
18417SOL    HW155429   5.216   0.941   7.332  0.1229 -1.5073 -0.1339
18417SOL    HW255430   5.291   0.871   7.459 -0.1003  0.2471  1.0012
18418SOL     OW55431   6.365   2.867   2.537 -0.4675 -0.6741  0.5114
18418SOL    HW155432   6.328   2.859   2.444  0.7552 -0.7339  0.0011
18418SOL    HW255433   6.299   2.830   2.602 -1.0239 -1.3908 -0.4179
18419SOL     OW55434   4.209   3.088   6.688 -0.2700 -0.5844 -0.0455
18419SOL    HW155435   4.149   3.031   6.633 -0.3394 -0.7777  0.2277
18419SOL    HW255436   4.243   3.036   6.766  0.6578 -0.6359 -0.4666
18420SOL     OW55437   3.458   4.323   2.861 -0.2347  0.2232  0.6353
18420SOL    HW155438   3.511   4.318   2.946  0.2535  1.1044  0.3958
18420SOL    HW255439   3.507   4.277   2.788  0.4940  1.5021  0.2848
18421SOL     OW55440   7.399   4.734   8.627 -0.5399 -0.1308  0.3898
18421SOL    HW155441   7.344   4.651   8.619 -0.6689 -0.3644  2.8494
18421SOL    HW255442   7.340   4.815   8.621 -0.8181 -0.3132  0.6482
18422SOL     OW55443   6.574   1.822   1.195  0.0086  1.0212  0.4152
18422SOL    HW155444   6.595   1.751   1.263  0.6586  0.6522 -0.1642
18422SOL    HW255445   6.491   1.871   1.223 -2.3753 -2.0365 -0.6814
18423SOL     OW55446   2.100   4.953   0.364 -0.4987  0.3216 -0.2837
18423SOL    HW155447   2.026   4.910   0.416 -0.0531  1.1001  1.0351
18423SOL    HW255448   2.062   5.029   0.310 -1.0278 -0.7323 -1.4249
18424SOL     OW55449   2.015   8.319   8.210 -0.4180 -0.2046 -0.2059
18424SOL    HW155450   1.934   8.377   8.211 -0.0357  0.3945 -1.3808
18424SOL    HW255451   2.088   8.365   8.158  0.5237 -0.9184  0.4518
18425SOL     OW55452   1.431   3.211   4.630 -0.6434 -0.4496  0.1308
18425SOL    HW155453   1.432   3.155   4.713 -0.4746 -0.5834  0.0389
18425SOL    HW255454   1.517   3.261   4.623  0.2138 -2.0029 -1.0238
18426SOL     OW55455   7.455   2.041   4.947  0.3215 -0.4079 -0.6150
18426SOL    HW155456   7.496   1.950   4.961 -1.1520 -0.8220  1.5655
18426SOL    HW255457   7.523   2.111   4.968  1.4265 -0.9702 -2.1503
18427SOL     OW55458   3.110   2.527   6.167 -0.7650 -0.9278  0.6484
18427SOL    HW155459   3.078   2.459   6.232 -1.6048 -0.6626  0.5259
18427SOL    HW255460   3.096   2.619   6.205 -1.8718 -0.7464 -0.1621
18428SOL     OW55461   3.383   6.862   2.062 -0.2698 -0.3561 -0.4262
18428SOL    HW155462   3.353   6.806   2.139  0.2359  0.2100  0.1885
18428SOL    HW255463   3.307   6.918   2.029 -0.7279 -1.2552 -0.9266
18429SOL     OW55464   8.522   2.216   7.795  0.2850  0.7328  0.0536
18429SOL    HW155465   8.584   2.294   7.793  1.5154 -0.2035  0.1096
18429SOL    HW255466   8.491   2.196   7.702  2.4210 -0.5517 -0.4410
18430SOL     OW55467   8.141   2.356   4.951  0.9861  0.3918 -0.1462
18430SOL    HW155468   8.201   2.435   4.941  1.7839 -0.2356 -0.4842
18430SOL    HW255469   8.148   2.321   5.045  0.3919  0.9006  0.0938
18431SOL     OW55470   1.257   2.361   1.526  0.2003 -0.2367  0.2308
18431SOL    HW155471   1.322   2.342   1.452  0.5310 -0.0755  0.4803
18431SOL    HW255472   1.204   2.279   1.546  0.9837 -0.6332  0.6753
18432SOL     OW55473   5.429   1.943   3.095  0.8234  0.1319  0.1003
18432SOL    HW155474   5.495   1.949   3.020  1.9522 -2.2593  0.8287
18432SOL    HW255475   5.350   1.888   3.066  0.0491  1.3078 -0.1050
18433SOL     OW55476   8.093   1.184   2.711 -0.3673  0.0294 -0.0315
18433SOL    HW155477   8.009   1.134   2.735  0.2433 -1.2423 -0.4744
18433SOL    HW255478   8.155   1.185   2.789 -1.5134  2.6511  0.9798
18434SOL     OW55479   6.638   6.154   1.694  0.3162 -0.0838 -0.0711
18434SOL    HW155480   6.716   6.216   1.702  1.3462 -0.8750 -3.0235
18434SOL    HW255481   6.575   6.189   1.625 -1.3544 -0.1424  1.3521
18435SOL     OW55482   3.871   5.114   7.276 -0.5190  0.3816  0.0061
18435SOL    HW155483   3.957   5.158   7.249  0.2864 -0.8890  0.4141
18435SOL    HW255484   3.871   5.019   7.245 -1.6636  0.2890  0.2593
18436SOL     OW55485   2.655   3.703   0.646 -0.1726  0.2254  0.2114
18436SOL    HW155486   2.585   3.679   0.714 -0.3476  0.6000  0.1649
18436SOL    HW255487   2.613   3.707   0.555  0.3706 -1.8771 -0.1874
18437SOL     OW55488   2.800   0.082   5.181  0.2557 -0.1113  0.2147
18437SOL    HW155489   2.759   0.167   5.148  0.2841 -1.5684 -4.2516
18437SOL    HW255490   2.899   0.085   5.167  0.4073 -0.4517  1.1694
18438SOL     OW55491   8.144   8.503   7.356  0.3212 -0.2771 -0.0607
18438SOL    HW155492   8.070   8.533   7.416  0.3213 -1.0482  0.3381
18438SOL    HW255493   8.123   8.413   7.319  0.5413 -0.0164 -0.8512
18439SOL     OW55494   1.097   5.948   2.026  0.4424  0.0482 -0.2270
18439SOL    HW155495   1.096   5.849   2.031 -0.4670 -0.0630 -1.6865
18439SOL    HW255496   1.004   5.981   2.005  1.0360  1.0555 -1.4564
18440SOL     OW55497   3.899   7.878   3.732  0.7917 -0.3260  0.3180
18440SOL    HW155498   3.826   7.866   3.800 -1.1274  1.0864 -1.3458
18440SOL    HW255499   3.931   7.973   3.735  1.4977 -0.5480  0.0028
18441SOL     OW55500   6.488   5.200   6.581 -0.1597  0.6502  0.1339
18441SOL    HW155501   6.440   5.287   6.569  0.9099  1.0627 -1.4914
18441SOL    HW255502   6.430   5.137   6.633 -0.4989  2.6830  2.4177
18442SOL     OW55503   0.590   5.214   1.226 -0.0834 -0.2032  0.1980
18442SOL    HW155504   0.520   5.283   1.207 -0.9224 -0.6278  1.5641
18442SOL    HW255505   0.615   5.167   1.141  0.3656  1.6105 -0.7253
18443SOL     OW55506   3.810   5.656   6.530 -0.6172  0.7191 -0.4540
18443SOL    HW155507   3.754   5.605   6.595  0.5725  1.8811  1.5650
18443SOL    HW255508   3.752   5.688   6.455 -2.1209 -0.3098  0.2206
18444SOL     OW55509   3.337   2.136   7.272 -0.2299  0.5299 -0.1668
18444SOL    HW155510   3.326   2.067   7.343 -1.1859  0.3772 -0.4501
18444SOL    HW255511   3.251   2.187   7.261 -0.3309  0.0762 -1.6971
18445SOL     OW55512   5.992   0.331   0.423  0.3021  0.0320  0.3107
18445SOL    HW155513   5.954   0.402   0.482  1.3027 -1.3021  2.7183
18445SOL    HW255514   6.088   0.350   0.404 -0.1346  0.7099 -1.3997
18446SOL     OW55515   3.306   7.952   7.940  0.2140 -0.7376  0.4975
18446SOL    HW155516   3.227   7.991   7.893  0.1998 -1.9064 -0.5082
18446SOL    HW255517   3.276   7.877   7.998  0.5819 -1.2189  0.0714
18447SOL     OW55518   8.192   1.313   0.411  0.2729 -0.1509 -0.1815
18447SOL    HW155519   8.098   1.340   0.392 -0.8910 -1.9249  2.5712
18447SOL    HW255520   8.212   1.323   0.508  2.2683 -1.7012 -0.3497
18448SOL     OW55521   5.347   6.620   7.415 -0.1016  0.1770 -0.1831
18448SOL    HW155522   5.270   6.673   7.379 -0.6145 -1.9498 -2.4331
18448SOL    HW255523   5.407   6.591   7.340  1.4787 -0.4271  1.2320
18449SOL     OW55524   2.423   7.276   8.052 -0.7838  0.1191  0.7307
18449SOL    HW155525   2.413   7.207   7.981 -0.8085  1.9225 -1.1119
18449SOL    HW255526   2.333   7.311   8.078 -0.6959  0.2966  0.8000
18450SOL     OW55527   3.720   4.504   1.513 -0.5292  0.6302 -0.2846
18450SOL    HW155528   3.656   4.434   1.480  0.8499 -1.5059  1.2813
18450SOL    HW255529   3.680   4.551   1.592 -0.2220 -0.6900  0.6830
18451SOL     OW55530   8.016   2.949   0.232 -0.2775  0.5283  0.3800
18451SOL    HW155531   8.019   2.876   0.301 -0.7057  0.4793  0.3513
18451SOL    HW255532   7.925   2.950   0.190 -0.1336  0.8016  0.0789
18452SOL     OW55533   0.456   3.427   8.017  0.1268  0.3705  0.0719
18452SOL    HW155534   0.394   3.465   7.949  0.1825 -0.0089 -0.1969
18452SOL    HW255535   0.419   3.341   8.051 -0.0228  0.6830  0.7108
18453SOL     OW55536   1.073   2.133   1.292 -0.2431  0.6497  0.2325
18453SOL    HW155537   1.135   2.135   1.370  0.6083  0.3459 -0.4242
18453SOL    HW255538   1.125   2.117   1.209 -1.1512  0.9027 -0.3956
18454SOL     OW55539   6.328   0.586   7.955 -0.1530  0.0269 -0.1043
18454SOL    HW155540   6.311   0.600   7.857  0.3631 -0.8269 -0.3284
18454SOL    HW255541   6.240   0.580   8.003 -0.4102  1.6725 -0.3114
18455SOL     OW55542   5.245   6.445   3.302 -0.1710 -0.1073 -0.5375
18455SOL    HW155543   5.198   6.376   3.247 -0.7199 -1.0407  1.0476
18455SOL    HW255544   5.331   6.469   3.257  0.9923 -3.2522 -0.2441
18456SOL     OW55545   3.227   5.434   1.517  0.1425 -0.1271 -0.4645
18456SOL    HW155546   3.176   5.425   1.603 -0.4970  1.5555 -0.6182
18456SOL    HW255547   3.294   5.360   1.510 -0.4523 -0.8583  1.0149
18457SOL     OW55548   1.352   7.788   7.995 -0.1240 -0.8156  0.0358
18457SOL    HW155549   1.301   7.712   8.034 -0.2834 -0.5466  0.3564
18457SOL    HW255550   1.431   7.809   8.053  0.1606 -1.0103 -0.2764
18458SOL     OW55551   2.940   7.495   3.410 -1.1793  0.3069  0.4166
18458SOL    HW155552   2.849   7.458   3.428 -1.0226  0.8151  2.5059
18458SOL    HW255553   3.004   7.420   3.392 -1.7956 -0.1226 -0.0086
18459SOL     OW55554   7.212   6.548   8.694 -0.5337  1.0823  0.0407
18459SOL    HW155555   7.234   6.610   8.619 -0.3165  1.1420  0.1534
18459SOL    HW255556   7.251   6.583   8.779 -0.7776  1.0138  0.1840
18460SOL     OW55557   2.503   6.647   4.854 -0.7173 -0.1244 -0.7645
18460SOL    HW155558   2.405   6.628   4.867 -0.8478  0.7758 -0.3854
18460SOL    HW255559   2.524   6.648   4.756 -0.6845 -2.2424 -0.8221
18461SOL     OW55560   1.420   1.084   2.594  0.0236 -0.2526 -0.3387
18461SOL    HW155561   1.467   1.023   2.530  0.5890  1.4594 -1.6445
18461SOL    HW255562   1.482   1.158   2.620 -0.5352 -0.3835  1.4767
18462SOL     OW55563   5.218   2.448   5.363 -0.5190  0.0300  0.6629
18462SOL    HW155564   5.222   2.476   5.267  1.5072 -1.0110  0.3681
18462SOL    HW255565   5.248   2.523   5.421 -2.2504  0.8364  0.5595
18463SOL     OW55566   7.540   3.083   5.886 -0.3225 -0.4022  0.0044
18463SOL    HW155567   7.587   3.164   5.920 -0.8250 -0.1376  0.0875
18463SOL    HW255568   7.441   3.095   5.899 -0.4320 -0.8139 -0.4386
18464SOL     OW55569   6.837   1.857   0.862 -0.1617  0.0665 -0.1924
18464SOL    HW155570   6.838   1.910   0.777  1.7339  1.1120  0.4277
18464SOL    HW255571   6.780   1.903   0.929  1.3209  1.2995  0.2796
18465SOL     OW55572   5.624   5.814   8.299 -1.0681 -0.2509  0.3236
18465SOL    HW155573   5.720   5.787   8.288 -1.1762 -1.1133  1.3951
18465SOL    HW255574   5.611   5.861   8.386 -1.6619 -0.3317  0.2869
18466SOL     OW55575   4.059   5.532   1.570 -0.4317  0.2200 -0.5706
18466SOL    HW155576   4.053   5.483   1.483 -1.3629  0.1669 -0.4925
18466SOL    HW255577   4.154   5.537   1.600 -0.1709 -0.2715 -1.3026
18467SOL     OW55578   3.719   8.861   6.347  0.1097 -0.1088  0.8423
18467SOL    HW155579   3.788   8.860   6.274 -0.9331  1.0775 -0.2144
18467SOL    HW255580   3.714   8.771   6.389  0.7356 -0.8481 -0.5835
18468SOL     OW55581   0.383   8.664   8.366  0.3307  0.1586 -0.2197
18468SOL    HW155582   0.455   8.597   8.386 -0.0490  0.0096  0.7050
18468SOL    HW255583   0.400   8.705   8.276  0.6690 -1.0444 -0.7388
18469SOL     OW55584   4.522   1.477   4.899 -0.2070 -0.3317 -0.3087
18469SOL    HW155585   4.586   1.418   4.849  0.0523 -0.1071 -0.2429
18469SOL    HW255586   4.474   1.423   4.967 -0.2009 -0.5351 -0.4642
18470SOL     OW55587   8.525   2.882   6.535  0.3544  0.2824 -0.2903
18470SOL    HW155588   8.570   2.794   6.549  1.3228  0.5325 -1.5810
18470SOL    HW255589   8.593   2.955   6.541  0.1794  0.6692 -2.2388
18471SOL     OW55590   7.847   6.667   0.734 -0.1390 -0.3591  0.1954
18471SOL    HW155591   7.764   6.693   0.783  0.2451 -0.6184  0.9987
18471SOL    HW255592   7.884   6.584   0.774  0.5851 -0.1670 -0.0706
18472SOL     OW55593   4.520   7.302   2.022 -0.1244 -0.2779  0.6518
18472SOL    HW155594   4.594   7.339   1.966 -0.7742 -1.8133 -1.3458
18472SOL    HW255595   4.433   7.309   1.972 -0.5995 -2.4512  1.0579
18473SOL     OW55596   5.009   2.820   7.398 -0.4890  0.2770 -0.3005
18473SOL    HW155597   5.085   2.761   7.370 -0.1579  1.0398 -1.0743
18473SOL    HW255598   4.990   2.886   7.324 -0.9560  1.0231  0.4705
18474SOL     OW55599   7.067   4.572   2.005  0.2476 -0.0426 -0.1512
18474SOL    HW155600   7.018   4.510   2.066 -0.7782  1.0905  0.2158
18474SOL    HW255601   7.026   4.664   2.010  1.0466  0.4201 -1.4744
18475SOL     OW55602   3.710   3.558   2.854 -0.2133 -0.9696  0.1526
18475SOL    HW155603   3.787   3.503   2.822 -0.0100  0.1033 -1.3163
18475SOL    HW255604   3.742   3.650   2.877 -0.8255 -0.9459  0.9622
18476SOL     OW55605   5.403   8.193   5.354 -0.2111 -0.1433  0.8936
18476SOL    HW155606   5.371   8.098   5.345 -3.2042  0.8599 -0.3365
18476SOL    HW255607   5.365   8.233   5.438 -0.6101  0.5004  0.4182
18477SOL     OW55608   1.991   1.494   2.555  0.2280  0.7419  0.2419
18477SOL    HW155609   2.015   1.488   2.458  2.1832 -0.3483  0.7357
18477SOL    HW255610   1.940   1.412   2.581 -0.2086  0.9877  0.1756
18478SOL     OW55611   5.603   8.823   7.051  0.0064 -0.7549  0.1662
18478SOL    HW155612   5.567   8.908   7.015 -0.4475 -1.0258 -0.0239
18478SOL    HW255613   5.624   8.834   7.149  0.6702 -0.2051 -0.0323
18479SOL     OW55614   0.108   4.694   2.541 -0.1441  0.1461  0.2816
18479SOL    HW155615   0.143   4.782   2.572  0.1045  0.3902 -0.6701
18479SOL    HW255616   0.141   4.622   2.602  1.0102  0.5186  0.1272
18480SOL     OW55617   4.607   3.824   4.827 -0.3035  0.1817 -0.1507
18480SOL    HW155618   4.585   3.875   4.910 -2.0127  0.3888 -0.6973
18480SOL    HW255619   4.691   3.861   4.787  0.0490  0.6597  0.9987
18481SOL     OW55620   5.328   6.054   3.391  0.2464 -0.1284  0.1862
18481SOL    HW155621   5.290   5.976   3.341  1.7495 -1.6781  1.3433
18481SOL    HW255622   5.301   6.050   3.487  0.7003  0.5322  0.3549
18482SOL     OW55623   6.458   6.512   7.080  0.7992  0.4056  0.3121
18482SOL    HW155624   6.432   6.423   7.043  0.6720  1.1686 -1.5208
18482SOL    HW255625   6.558   6.518   7.082  0.8748  1.2466 -2.3445
18483SOL     OW55626   6.807   7.143   4.361  0.3079 -0.1641 -0.4496
18483SOL    HW155627   6.859   7.221   4.326 -0.5323  0.5642 -0.1147
18483SOL    HW255628   6.856   7.101   4.437 -0.2965  1.4957  0.9171
18484SOL     OW55629   3.088   5.550   3.863  0.5329 -0.3564  0.1772
18484SOL    HW155630   3.053   5.468   3.907  1.1011 -0.3790  0.5876
18484SOL    HW255631   3.186   5.559   3.879  0.6742 -0.1339 -0.7154
18485SOL     OW55632   1.572   2.104   0.953  0.0452 -0.0306  0.1871
18485SOL    HW155633   1.655   2.136   0.907 -1.8013  2.7223 -1.5170
18485SOL    HW255634   1.501   2.085   0.885 -1.4616 -0.1012  1.6963
18486SOL     OW55635   6.344   0.234   7.093 -0.1280  0.2846  0.0273
18486SOL    HW155636   6.274   0.263   7.028 -0.0999 -0.2997 -0.2763
18486SOL    HW255637   6.424   0.294   7.086 -0.4140  0.6672  0.0424
18487SOL     OW55638   2.266   8.580   2.107 -0.2162 -0.3462  0.3091
18487SOL    HW155639   2.276   8.598   2.009 -0.0113  0.0864  0.4063
18487SOL    HW255640   2.202   8.504   2.120 -0.6269 -0.0859 -0.1395
18488SOL     OW55641   4.984   0.285   0.834  0.5072 -0.7487  0.3194
18488SOL    HW155642   5.052   0.245   0.897  0.5701  0.8010  1.2732
18488SOL    HW255643   5.028   0.302   0.746  1.5169  0.5495  1.0243
18489SOL     OW55644   6.357   7.377   0.772  0.0423  0.5381 -0.0176
18489SOL    HW155645   6.284   7.388   0.705  0.5676 -0.4933 -0.7955
18489SOL    HW255646   6.393   7.466   0.799 -0.2435  0.9693 -1.0401
18490SOL     OW55647   0.069   6.684   3.048 -0.9225  0.2192  0.2694
18490SOL    HW155648   0.103   6.718   3.136 -1.9618  3.5326 -0.4719
18490SOL    HW255649  -0.018   6.728   3.026 -0.5060 -0.1618 -2.5976
18491SOL     OW55650   4.745   3.973   3.791 -0.0238  0.7408  0.0241
18491SOL    HW155651   4.772   3.905   3.859  0.0956  0.5544 -0.2082
18491SOL    HW255652   4.648   3.962   3.769  0.0996  0.3567 -0.3397
18492SOL     OW55653   8.713   5.497   1.035 -0.1102  0.6132 -0.3538
18492SOL    HW155654   8.762   5.410   1.041 -1.9380 -0.4561 -0.1758
18492SOL    HW255655   8.717   5.543   1.124 -0.1627  0.1114 -0.0869
18493SOL     OW55656   3.838   8.041   0.130 -0.4169 -0.6416  0.4088
18493SOL    HW155657   3.900   7.985   0.185 -1.5984 -0.1312  2.3681
18493SOL    HW255658   3.863   8.138   0.139 -1.7442 -0.3734  1.6656
18494SOL     OW55659   4.458   0.943   4.415 -0.2996  0.3114 -0.2904
18494SOL    HW155660   4.371   0.992   4.405 -0.3792 -0.0032 -1.3357
18494SOL    HW255661   4.498   0.964   4.504 -1.8547 -0.2189  0.5813
18495SOL     OW55662   6.739   3.166   1.426  0.2844  0.1224 -0.1214
18495SOL    HW155663   6.670   3.121   1.369 -0.2831  0.0595  0.6124
18495SOL    HW255664   6.698   3.197   1.511  1.3594 -0.7662  0.7538
18496SOL     OW55665   7.121   2.411   5.793 -0.1798  0.5504  0.5437
18496SOL    HW155666   7.185   2.485   5.813 -0.5270  0.7059  1.1043
18496SOL    HW255667   7.107   2.355   5.875 -0.1002 -0.0003  0.1885
18497SOL     OW55668   6.460   4.278   3.069  0.4734 -0.0170  0.2915
18497SOL    HW155669   6.550   4.307   3.039  0.4124 -1.3701 -1.3680
18497SOL    HW255670   6.390   4.326   3.017  0.1198  2.0113  2.4730
18498SOL     OW55671   2.429   8.058   0.056 -0.1926  0.3659  0.4911
18498SOL    HW155672   2.468   8.016  -0.025  1.8104  2.0813  0.4683
18498SOL    HW255673   2.342   8.102   0.033  0.7040  1.4822 -0.9825
18499SOL     OW55674   7.303   2.414   8.417 -0.1957  0.2830  0.4323
18499SOL    HW155675   7.339   2.327   8.384 -1.0858 -0.1417  0.5535
18499SOL    HW255676   7.379   2.476   8.436  0.5848 -1.0814  2.0950
18500SOL     OW55677   1.184   5.062   0.774 -0.3716  0.2887 -0.4267
18500SOL    HW155678   1.228   4.972   0.780 -0.0614  0.5295  1.9806
18500SOL    HW255679   1.200   5.101   0.683  0.5766 -1.5191 -1.0906
18501SOL     OW55680   0.908   1.084   5.337 -0.2147 -0.0843  0.0118
18501SOL    HW155681   0.833   1.117   5.279 -0.2504  0.9065  0.5991
18501SOL    HW255682   0.909   0.984   5.336  0.3740 -0.1130 -2.4322
18502SOL     OW55683   2.464   3.535   6.237  0.3771  0.1928 -0.1310
18502SOL    HW155684   2.433   3.483   6.316  0.2658 -1.1749 -1.0511
18502SOL    HW255685   2.555   3.504   6.210  1.9439  2.9469  1.4588
18503SOL     OW55686   5.589   8.049   5.918 -0.3422 -0.0831 -0.3048
18503SOL    HW155687   5.516   7.991   5.880 -0.4534 -0.1105 -0.0550
18503SOL    HW255688   5.624   8.110   5.847 -0.5958 -0.0856 -0.4336
18504SOL     OW55689   6.442   5.924   2.754  0.8680  0.4001 -0.5528
18504SOL    HW155690   6.446   5.973   2.841  1.1368  3.1108 -1.9760
18504SOL    HW255691   6.502   5.845   2.757  0.8316  0.4049  1.7145
18505SOL     OW55692   4.596   0.177   4.952 -0.4055 -0.6334  0.1375
18505SOL    HW155693   4.522   0.242   4.936 -0.4643  0.1963  3.1358
18505SOL    HW255694   4.679   0.210   4.907 -0.6633  1.0733  0.8191
18506SOL     OW55695   3.288   8.113   2.824 -0.4251 -0.8688 -0.7022
18506SOL    HW155696   3.259   8.095   2.730  0.8050  1.1873 -1.5379
18506SOL    HW255697   3.365   8.176   2.824  0.2839 -1.6111  1.6756
18507SOL     OW55698   3.598   3.249   6.893  0.1208  0.5606  0.0124
18507SOL    HW155699   3.684   3.298   6.882 -0.4263  1.9661  1.6066
18507SOL    HW255700   3.569   3.212   6.805  1.9980  0.6171 -0.6760
18508SOL     OW55701   6.438   1.132   1.903 -0.6173 -0.3101  0.0536
18508SOL    HW155702   6.370   1.157   1.973  0.8328  0.2126  1.3327
18508SOL    HW255703   6.530   1.144   1.941  0.2015 -0.8181 -1.7033
18509SOL     OW55704   2.439   4.615   6.267 -0.6537 -0.0976  0.1014
18509SOL    HW155705   2.483   4.675   6.199 -1.1102  0.6957  0.4893
18509SOL    HW255706   2.388   4.544   6.220 -1.0095  0.4765 -0.4031
18510SOL     OW55707   8.377   7.318   2.966  0.2194  0.1476 -0.2515
18510SOL    HW155708   8.373   7.229   2.922  1.2164  0.2156 -0.4837
18510SOL    HW255709   8.375   7.390   2.896  0.7020  0.2793 -0.1296
18511SOL     OW55710   8.243   4.282   8.839 -0.0915  0.2992 -0.0988
18511SOL    HW155711   8.251   4.285   8.939 -2.5002  2.4618  0.1248
18511SOL    HW255712   8.185   4.205   8.812  0.7051 -0.3935  0.1325
18512SOL     OW55713   7.236   1.456   4.710  0.1318 -0.1936  0.3612
18512SOL    HW155714   7.194   1.448   4.620 -0.6716 -1.8200  0.8556
18512SOL    HW255715   7.167   1.445   4.781  0.8024  0.7883  1.2077
18513SOL     OW55716   5.598   8.579   2.915  0.1496 -0.5820  0.4297
18513SOL    HW155717   5.554   8.669   2.914  0.7472 -0.2871 -0.0798
18513SOL    HW255718   5.536   8.512   2.873 -0.8245 -0.6857  1.9632
18514SOL     OW55719   2.645   5.511   8.796  0.0925  0.1669  0.1558
18514SOL    HW155720   2.720   5.566   8.834 -0.0744  1.4514 -1.2737
18514SOL    HW255721   2.658   5.415   8.822  1.8426  0.4670  0.5416
18515SOL     OW55722   3.392   3.500   5.232  0.5960  0.2742  0.1742
18515SOL    HW155723   3.360   3.563   5.302  0.7111 -2.1964  2.6067
18515SOL    HW255724   3.479   3.459   5.261  1.0314 -0.2929 -1.7830
18516SOL     OW55725   3.483   8.651   6.428 -0.2236 -0.1594 -0.4243
18516SOL    HW155726   3.489   8.689   6.520  1.5407  0.3476 -0.7069
18516SOL    HW255727   3.568   8.603   6.406 -0.5760 -0.1966 -1.8138
18517SOL     OW55728   5.624   6.709   5.887 -0.0863  0.0659  0.1089
18517SOL    HW155729   5.713   6.673   5.913 -0.7285 -0.5306  1.5723
18517SOL    HW255730   5.553   6.671   5.947 -1.0793  2.0985  0.2916
18518SOL     OW55731   3.482   0.987   2.260 -0.5845 -0.5155 -0.1858
18518SOL    HW155732   3.398   0.990   2.205  0.1178  0.9564 -1.2299
18518SOL    HW255733   3.467   0.928   2.340 -2.5602 -0.4158 -0.4265
18519SOL     OW55734   5.082   2.079   5.680  0.0615 -0.0778 -0.0513
18519SOL    HW155735   5.161   2.081   5.618  0.1982  2.0152  0.1135
18519SOL    HW255736   5.009   2.025   5.639  0.8568 -0.3740 -1.1292
18520SOL     OW55737   4.541   1.629   5.119  0.2808 -0.0379 -0.5458
18520SOL    HW155738   4.556   1.583   5.031 -2.1834 -0.5487 -0.7586
18520SOL    HW255739   4.630   1.652   5.160  1.5183 -1.4915 -2.2574
18521SOL     OW55740   5.161   0.001   8.138 -0.4352  0.5594 -0.4293
18521SOL    HW155741   5.103  -0.081   8.146  0.1270 -0.0427 -2.0100
18521SOL    HW255742   5.147   0.042   8.048  0.5374  1.2422 -0.2750
18522SOL     OW55743   2.958   6.849   1.928  0.4485 -0.4303  0.3347
18522SOL    HW155744   2.961   6.850   1.828 -0.5368  1.7645  0.2654
18522SOL    HW255745   3.042   6.888   1.965  1.0979 -1.8405  0.4293
18523SOL     OW55746   0.856   7.177   1.165 -0.2757  0.5041  0.0689
18523SOL    HW155747   0.934   7.209   1.111  1.1640 -0.2778  1.5691
18523SOL    HW255748   0.832   7.246   1.233  0.3920 -0.0281  0.8636
18524SOL     OW55749   7.582   0.980   5.341  0.0783  0.5110  0.2644
18524SOL    HW155750   7.632   0.904   5.382 -1.4448 -0.8612 -0.3204
18524SOL    HW255751   7.491   0.949   5.313  0.4423  1.7796 -2.6875
18525SOL     OW55752   5.605   4.038   8.378  0.3080 -0.9665  0.2977
18525SOL    HW155753   5.531   4.085   8.425  1.2006 -0.5713  1.3506
18525SOL    HW255754   5.613   4.073   8.284  0.1819  0.1324  0.6810
18526SOL     OW55755   7.309   0.681   4.686  0.0940  0.4067  0.5736
18526SOL    HW155756   7.216   0.650   4.709  0.4982  0.0811  1.8369
18526SOL    HW255757   7.328   0.661   4.590  0.0445 -2.5790  1.1075
18527SOL     OW55758   7.461   6.085   1.779 -0.0274  0.3949  0.2671
18527SOL    HW155759   7.534   6.076   1.847 -0.4059  0.2163  0.6551
18527SOL    HW255760   7.374   6.060   1.820 -0.9364  4.1162  0.9923
18528SOL     OW55761   4.343   1.085   3.419  0.0231 -0.0906  0.4005
18528SOL    HW155762   4.337   0.986   3.423  1.1685 -0.1614  0.8288
18528SOL    HW255763   4.271   1.126   3.476  2.6428 -0.7916  4.5847
18529SOL     OW55764   0.733   6.936   2.947  0.4505  0.6109  0.2018
18529SOL    HW155765   0.670   6.932   2.869 -0.4727 -0.4118  0.9688
18529SOL    HW255766   0.827   6.924   2.915  0.2491  1.8303 -0.9268
18530SOL     OW55767   1.642   8.575   3.599  0.7417 -0.6149  0.5994
18530SOL    HW155768   1.727   8.523   3.607  1.3446 -0.1454 -1.8724
18530SOL    HW255769   1.569   8.515   3.565  0.3707 -0.7486  1.6110
18531SOL     OW55770   6.184   8.345   1.689 -0.2045 -0.4753  0.6118
18531SOL    HW155771   6.208   8.423   1.747 -2.1790  0.0472  0.8125
18531SOL    HW255772   6.245   8.342   1.610  1.4857 -0.2243  1.8425
18532SOL     OW55773   0.923   3.290   8.427 -0.1043  0.4195  0.5105
18532SOL    HW155774   0.958   3.199   8.451  2.0820  1.5452  1.9126
18532SOL    HW255775   0.938   3.306   8.329 -1.9978 -1.2684 -0.1294
18533SOL     OW55776   7.653   8.499   7.251  0.5100 -0.3984  0.3634
18533SOL    HW155777   7.592   8.522   7.176  1.3192 -0.0234 -0.1939
18533SOL    HW255778   7.691   8.582   7.291  1.2111 -0.6394  0.2220
18534SOL     OW55779   5.279   6.196   2.757 -0.2471 -0.0937  0.5852
18534SOL    HW155780   5.262   6.290   2.730  0.9827 -0.1691 -0.5543
18534SOL    HW255781   5.251   6.134   2.684  1.1484 -0.4381  0.3049
18535SOL     OW55782   2.736   2.521   4.699 -0.2570  0.9444  0.4903
18535SOL    HW155783   2.641   2.541   4.677 -0.5104 -1.9403 -1.6829
18535SOL    HW255784   2.740   2.452   4.771  0.3177  2.7402  2.2405
18536SOL     OW55785   8.233   1.125   1.648  0.4395 -0.1185  0.6325
18536SOL    HW155786   8.263   1.054   1.584  0.5401 -0.2308  0.8027
18536SOL    HW255787   8.142   1.102   1.683  0.1003  0.2834  0.0249
18537SOL     OW55788   1.052   6.175   6.945 -0.4354 -0.1515  0.1989
18537SOL    HW155789   1.042   6.190   6.847 -0.5370  0.8495  0.3480
18537SOL    HW255790   1.120   6.103   6.962  2.2762  2.0535 -0.5485
18538SOL     OW55791   1.136   2.734   2.842  0.5652  0.0999  0.2883
18538SOL    HW155792   1.071   2.713   2.769 -0.1372  0.2086  0.8697
18538SOL    HW255793   1.230   2.718   2.810  0.3009  0.7551 -0.8319
18539SOL     OW55794   2.715   2.577   4.168 -0.0403  0.1992  0.2520
18539SOL    HW155795   2.799   2.602   4.120  1.0804 -0.2305  1.9156
18539SOL    HW255796   2.720   2.481   4.196 -2.0507 -0.5116 -1.4841
18540SOL     OW55797   6.926   6.679   8.010 -0.3242  0.2462  0.1212
18540SOL    HW155798   6.967   6.623   7.938  0.9082 -0.2901  1.2027
18540SOL    HW255799   6.916   6.773   7.978  0.2006  0.0102 -0.7523
18541SOL     OW55800   7.723   3.880   2.398 -0.0001  0.1524  0.0341
18541SOL    HW155801   7.723   3.980   2.394  1.8287  0.2420  1.0783
18541SOL    HW255802   7.732   3.843   2.306  1.7516  1.0366 -0.1897
18542SOL     OW55803   5.962   3.909   2.377  0.3417 -0.3171  0.6219
18542SOL    HW155804   5.993   3.896   2.471 -1.3533 -2.4673  0.9608
18542SOL    HW255805   5.871   3.950   2.377  0.2817 -0.4330 -0.0598
18543SOL     OW55806   7.429   3.701   3.067  0.4835 -0.1609 -0.3730
18543SOL    HW155807   7.463   3.624   3.013  0.8038  0.0418 -0.4640
18543SOL    HW255808   7.479   3.783   3.042  0.7910 -0.1116  0.3993
18544SOL     OW55809   0.043   0.094   0.526  0.0331  1.0556 -0.4851
18544SOL    HW155810   0.057   0.053   0.616 -0.0772 -0.4562 -1.1223
18544SOL    HW255811   0.123   0.149   0.502 -0.0398  1.6683  0.6225
18545SOL     OW55812   5.544   6.195   8.694 -0.0858 -0.1611  0.1202
18545SOL    HW155813   5.600   6.134   8.751 -0.4828  0.3953  1.1440
18545SOL    HW255814   5.586   6.285   8.689 -0.3402 -0.0462  0.0040
18546SOL     OW55815   5.585   5.584   6.900 -0.0770  0.6606 -0.3511
18546SOL    HW155816   5.530   5.658   6.862  0.8292  1.7086  0.3320
18546SOL    HW255817   5.594   5.511   6.831 -2.0070  0.5859 -0.5895
18547SOL     OW55818   2.594   1.569   0.840 -0.1897  0.4550 -0.1500
18547SOL    HW155819   2.518   1.509   0.814 -0.8443  1.1292  0.1770
18547SOL    HW255820   2.594   1.649   0.780 -0.9508  1.4192  1.1076
18548SOL     OW55821   7.298   6.353   1.159 -0.1425  0.5553  0.0719
18548SOL    HW155822   7.267   6.320   1.248 -0.0835  2.4711  0.8290
18548SOL    HW255823   7.395   6.374   1.162 -0.1486  0.6849 -0.4472
18549SOL     OW55824   0.111   6.315   5.650  0.1742 -0.7050 -0.1144
18549SOL    HW155825   0.164   6.370   5.584  0.7497 -0.1132  0.8116
18549SOL    HW255826   0.014   6.326   5.631  0.3388 -0.8947 -1.1406
18550SOL     OW55827   0.148   7.710   8.373 -1.1627  0.6755  0.1119
18550SOL    HW155828   0.171   7.782   8.438  1.7035  0.9691 -1.0622
18550SOL    HW255829   0.190   7.624   8.402  1.9328  1.2428 -2.1717
18551SOL     OW55830   5.917   0.274   6.209 -0.3961  0.2793  0.4649
18551SOL    HW155831   5.929   0.217   6.291  0.1492 -0.2654  0.0131
18551SOL    HW255832   6.004   0.318   6.187 -0.5605  0.4752  0.2181
18552SOL     OW55833   8.137   4.951   4.417 -0.3835 -0.2585  0.3524
18552SOL    HW155834   8.071   4.897   4.470  0.1187  0.3838  1.6932
18552SOL    HW255835   8.126   4.933   4.320 -2.2490 -0.4778  0.5806
18553SOL     OW55836   0.340   8.387   3.598  0.1570  0.4786  0.2332
18553SOL    HW155837   0.275   8.389   3.674  0.8088  2.6614  0.7950
18553SOL    HW255838   0.323   8.465   3.537  0.1075 -0.8277 -1.5118
18554SOL     OW55839   7.303   0.833   2.506  0.2571 -0.0943 -0.1936
18554SOL    HW155840   7.400   0.851   2.493  0.0922  0.0266 -1.3098
18554SOL    HW255841   7.255   0.919   2.526  0.1782  0.0545 -0.9904
18555SOL     OW55842   2.543   0.503   4.848  0.5101 -0.1287 -0.5234
18555SOL    HW155843   2.539   0.484   4.946  1.2088  1.6517 -0.1213
18555SOL    HW255844   2.508   0.424   4.798 -0.6146 -0.7753  1.1743
18556SOL     OW55845   2.592   4.499   2.650 -0.0175 -0.0973 -0.1719
18556SOL    HW155846   2.527   4.570   2.676  0.0118 -0.1074 -0.0727
18556SOL    HW255847   2.549   4.437   2.584  0.4876  0.9753 -1.5598
18557SOL     OW55848   1.708   0.392   1.496 -0.4441 -0.2726 -0.5202
18557SOL    HW155849   1.624   0.445   1.508 -0.8038 -1.1304  1.1362
18557SOL    HW255850   1.756   0.387   1.584 -0.4627 -2.7057 -0.5787
18558SOL     OW55851   0.452   8.102   7.070 -0.4841  0.3849  0.0618
18558SOL    HW155852   0.520   8.052   7.123 -0.8881 -0.3057 -0.0597
18558SOL    HW255853   0.443   8.195   7.107 -1.0507 -0.2044  1.4597
18559SOL     OW55854   3.260   2.038   0.013 -0.1151 -0.3429  1.0842
18559SOL    HW155855   3.190   1.985  -0.035  0.6765 -1.3839  1.0631
18559SOL    HW255856   3.220   2.075   0.098 -1.0046  0.0302  0.5182
18560SOL     OW55857   3.382   4.025   4.811  0.4325  0.0985 -0.1455
18560SOL    HW155858   3.413   4.062   4.723  1.8784  0.0126  0.2917
18560SOL    HW255859   3.312   3.956   4.795  2.2319 -1.5541 -1.4497
18561SOL     OW55860   6.902   3.460   1.859 -0.2068 -0.3724  0.5924
18561SOL    HW155861   6.916   3.541   1.916  0.6657  0.3569 -0.6086
18561SOL    HW255862   6.869   3.384   1.916  1.8223 -0.0549  2.3300
18562SOL     OW55863   3.135   8.394   5.880 -0.3861  0.3687 -0.1434
18562SOL    HW155864   3.041   8.423   5.861 -0.8458  0.7656  2.3202
18562SOL    HW255865   3.153   8.308   5.833 -1.3266  1.1849 -2.1309
18563SOL     OW55866   5.130   1.472   0.959  0.6942 -0.4511 -0.2459
18563SOL    HW155867   5.047   1.527   0.964  0.2221 -1.1724  4.7008
18563SOL    HW255868   5.209   1.533   0.947 -0.0981  0.9267  1.2057
18564SOL     OW55869   7.911   7.737   8.753  0.0920  0.1700 -0.2138
18564SOL    HW155870   7.944   7.668   8.818 -0.2055 -0.3126 -0.5755
18564SOL    HW255871   7.825   7.775   8.787  0.0561  0.0874 -0.2130
18565SOL     OW55872   2.747   6.803   2.403  0.0361 -0.2204  0.1134
18565SOL    HW155873   2.752   6.806   2.303 -1.3844 -0.6062  0.0026
18565SOL    HW255874   2.831   6.840   2.442  0.0142  1.3217 -1.2145
18566SOL     OW55875   6.428   3.598   0.146  0.1103 -0.0779 -0.3444
18566SOL    HW155876   6.329   3.614   0.139 -0.0782 -0.9023  0.2073
18566SOL    HW255877   6.461   3.560   0.060  0.0110  0.5019 -0.6420
18567SOL     OW55878   0.244   6.647   0.506 -0.8606 -0.1347  0.3308
18567SOL    HW155879   0.179   6.721   0.526  1.6433  2.4971 -0.4859
18567SOL    HW255880   0.320   6.652   0.571  1.9131  1.4842 -2.7285
18568SOL     OW55881   7.172   7.625   7.247 -0.2885 -0.3900  0.2403
18568SOL    HW155882   7.181   7.722   7.269  0.5419 -0.4317  0.1050
18568SOL    HW255883   7.252   7.594   7.196 -0.1295 -1.3589  1.0381
18569SOL     OW55884   0.893   8.432   6.005 -0.2967 -0.4879  0.2622
18569SOL    HW155885   0.924   8.340   5.981 -1.8330 -0.5168 -1.8797
18569SOL    HW255886   0.794   8.432   6.015 -0.2333  0.7811  1.0436
18570SOL     OW55887   0.668   6.090   6.729 -0.2440 -0.7221  0.1383
18570SOL    HW155888   0.593   6.132   6.781  0.0574 -1.1482  0.9244
18570SOL    HW255889   0.716   6.161   6.679 -1.7174 -0.5467 -1.1021
18571SOL     OW55890   2.417   2.136   4.708  0.3037 -0.4396 -0.0075
18571SOL    HW155891   2.367   2.118   4.793  0.7474  2.2841  0.9425
18571SOL    HW255892   2.513   2.155   4.729  0.0105  2.3327 -0.7808
18572SOL     OW55893   6.732   6.116   7.692 -0.3112  0.5833 -0.0438
18572SOL    HW155894   6.778   6.049   7.634 -0.0848  0.2909  0.4712
18572SOL    HW255895   6.786   6.201   7.694 -0.0130  0.3872  0.2226
18573SOL     OW55896   3.948   7.197   1.155  0.2723  0.1799 -0.4491
18573SOL    HW155897   3.884   7.165   1.224 -0.0100 -0.2042 -0.8874
18573SOL    HW255898   3.934   7.295   1.139 -0.7467 -0.0676 -1.1192
18574SOL     OW55899   3.746   3.775   3.833 -0.4882 -0.2254 -0.3505
18574SOL    HW155900   3.659   3.728   3.850  1.1239 -3.2805  0.0757
18574SOL    HW255901   3.774   3.758   3.738  0.6499 -1.1500  0.1280
18575SOL     OW55902   0.840   8.430   1.736  0.2023  0.3085 -0.6760
18575SOL    HW155903   0.913   8.440   1.803  0.9146 -0.1626 -1.3708
18575SOL    HW255904   0.853   8.346   1.684 -1.6652 -0.6001  0.1970
18576SOL     OW55905   2.829   1.436   8.122  0.0299  0.1457  0.3664
18576SOL    HW155906   2.814   1.412   8.218 -0.2786 -1.2271  0.0003
18576SOL    HW255907   2.744   1.426   8.072  0.3505  0.1463 -0.1852
18577SOL     OW55908   0.874   0.009   8.726 -0.3527 -0.1167  0.1709
18577SOL    HW155909   0.965   0.050   8.715 -0.4426 -0.0534 -0.3655
18577SOL    HW255910   0.824   0.017   8.640 -0.1096 -1.9947 -0.1760
18578SOL     OW55911   2.334   8.841   5.066  0.7801  0.1487  0.2619
18578SOL    HW155912   2.326   8.781   4.986  2.1483 -0.2241  0.3809
18578SOL    HW255913   2.347   8.935   5.037 -2.0871  0.5883  0.0624
18579SOL     OW55914   0.863   4.272   8.074 -0.1756 -0.5765  0.6264
18579SOL    HW155915   0.889   4.178   8.094 -1.2361 -0.7902  1.0253
18579SOL    HW255916   0.897   4.333   8.146  1.1241 -0.5332  0.0125
18580SOL     OW55917   8.639   6.024   3.096  0.1004  0.0730 -0.0800
18580SOL    HW155918   8.551   6.070   3.103  0.4201  0.6117  0.4788
18580SOL    HW255919   8.645   5.977   3.008 -1.3531 -1.2741  0.4963
18581SOL     OW55920   0.718   2.595   3.043  0.2734 -0.1932 -0.4434
18581SOL    HW155921   0.742   2.669   3.106  0.3223  0.9084 -1.7132
18581SOL    HW255922   0.618   2.582   3.044  0.2227  0.1945 -0.5610
18582SOL     OW55923   7.286   3.577   7.748 -0.7594  0.1755 -0.1506
18582SOL    HW155924   7.209   3.521   7.718  0.8667 -1.1721 -1.9924
18582SOL    HW255925   7.290   3.577   7.848 -0.6859 -3.2337 -0.0685
18583SOL     OW55926   2.502   4.311   7.309 -0.2622 -0.0357  0.1599
18583SOL    HW155927   2.520   4.217   7.277  0.2880 -0.0763  0.5890
18583SOL    HW255928   2.565   4.334   7.383  1.5290  1.6800 -1.7765
18584SOL     OW55929   6.602   3.935   5.792 -0.0930 -0.1970  0.5225
18584SOL    HW155930   6.558   4.006   5.737  0.2721  1.7423  2.6054
18584SOL    HW255931   6.629   3.859   5.732 -1.7605  0.7412 -1.5661
18585SOL     OW55932   4.637   6.999   7.723  0.3453 -0.3331 -0.0902
18585SOL    HW155933   4.606   6.939   7.797 -1.0368  2.2553  1.6087
18585SOL    HW255934   4.563   7.011   7.657  0.0337  0.6360  0.4092
18586SOL     OW55935   6.529   2.343   6.473  0.2969 -0.2527 -0.7092
18586SOL    HW155936   6.488   2.377   6.558  2.7782  1.2940 -0.0140
18586SOL    HW255937   6.465   2.281   6.427 -1.9960  0.6022  1.1397
18587SOL     OW55938   3.265   6.854   0.602  0.5272  0.4736  0.1445
18587SOL    HW155939   3.362   6.860   0.580  0.4136 -1.4270 -1.0953
18587SOL    HW255940   3.254   6.824   0.697  1.1572  0.7365  0.3038
18588SOL     OW55941   0.684   7.445   2.144  0.2754  0.1289  0.1882
18588SOL    HW155942   0.626   7.510   2.095  0.4500 -0.3235 -0.6369
18588SOL    HW255943   0.776   7.447   2.105  0.1275 -1.0462 -0.2602
18589SOL     OW55944   4.449   5.738   4.831 -0.0852  0.3135  0.1352
18589SOL    HW155945   4.455   5.752   4.732  0.8475  0.4452  0.2036
18589SOL    HW255946   4.354   5.721   4.856 -0.0599 -1.9191 -1.0799
18590SOL     OW55947   0.525   0.688   5.958 -0.2460 -0.3142  0.0173
18590SOL    HW155948   0.562   0.772   5.997  1.4326 -0.5801 -0.9193
18590SOL    HW255949   0.430   0.677   5.987 -0.4722  1.8428  0.2444
18591SOL     OW55950   4.686   3.854   3.021  0.1794 -0.3412  0.0533
18591SOL    HW155951   4.727   3.944   3.009 -0.7296  0.0568 -0.1547
18591SOL    HW255952   4.753   3.792   3.063  1.0913  0.1905 -0.5712
18592SOL     OW55953   3.965   1.476   3.036  0.3143  0.1755  0.2713
18592SOL    HW155954   3.936   1.414   3.108  0.2445 -1.0830 -0.7960
18592SOL    HW255955   3.888   1.532   3.006  0.2407  0.3932  0.8533
18593SOL     OW55956   1.350   6.402   1.130  0.3470 -0.6092  0.5777
18593SOL    HW155957   1.389   6.466   1.195 -0.0160  1.9894 -1.6034
18593SOL    HW255958   1.413   6.390   1.053 -1.9528  1.9387 -1.9257
18594SOL     OW55959   5.505   7.891   3.685 -0.2070  0.3110  0.3528
18594SOL    HW155960   5.459   7.950   3.752 -1.2088 -1.3341  1.1757
18594SOL    HW255961   5.521   7.943   3.601  1.1093  2.4509  1.8286
18595SOL     OW55962   8.503   3.373   0.149 -0.3392 -0.0637  0.3898
18595SOL    HW155963   8.470   3.466   0.129  0.6597  0.2550  0.1595
18595SOL    HW255964   8.603   3.370   0.139 -0.1206 -0.6854  2.2796
18596SOL     OW55965   5.406   6.000   0.249 -0.2020 -0.1072 -0.0802
18596SOL    HW155966   5.325   5.975   0.302 -0.1953 -0.4687 -0.2372
18596SOL    HW255967   5.483   6.013   0.311 -0.1804 -0.5819 -0.0015
18597SOL     OW55968   1.390   1.428   6.612 -0.7456  0.4140  0.5721
18597SOL    HW155969   1.310   1.414   6.552  0.0944  0.7711 -0.6669
18597SOL    HW255970   1.458   1.357   6.593  0.5839  1.9587 -0.7336
18598SOL     OW55971   3.186   8.332   6.147 -0.1208 -0.2330  0.0230
18598SOL    HW155972   3.179   8.368   6.054 -1.5257  1.4622  0.7391
18598SOL    HW255973   3.176   8.232   6.145 -3.2165 -0.0017 -1.4014
18599SOL     OW55974   3.549   8.599   4.328  0.1915 -0.1655  0.7220
18599SOL    HW155975   3.579   8.674   4.386 -0.0265  0.0254  0.5875
18599SOL    HW255976   3.471   8.553   4.371  0.1009 -0.0933  0.6347
18600SOL     OW55977   8.473   8.127   2.255  0.2005 -1.0368  0.4386
18600SOL    HW155978   8.377   8.145   2.277  0.1287 -1.9625  0.9504
18600SOL    HW255979   8.502   8.042   2.300  1.1206 -1.0261 -0.1094
18601SOL     OW55980   1.965   2.660   0.101  0.5157  0.1225 -0.3267
18601SOL    HW155981   2.007   2.739   0.147  0.9668 -1.0798  1.4177
18601SOL    HW255982   2.023   2.632   0.025  1.7719 -0.1506  0.7001
18602SOL     OW55983   0.512   6.183   5.291  0.0406  0.0181  0.1128
18602SOL    HW155984   0.490   6.162   5.196 -0.4313 -0.8274  0.3993
18602SOL    HW255985   0.437   6.235   5.332  0.1145  0.1328  0.1018
18603SOL     OW55986   7.554   4.880   8.286 -0.4021 -0.2790  0.3310
18603SOL    HW155987   7.614   4.807   8.320 -0.9342 -1.1902 -0.6116
18603SOL    HW255988   7.554   4.956   8.350  1.3816 -0.4531  0.5908
18604SOL     OW55989   8.419   0.838   6.292 -0.2805  0.0077  0.1836
18604SOL    HW155990   8.385   0.930   6.310  1.3841  0.3626  1.8436
18604SOL    HW255991   8.349   0.771   6.316 -1.1473  0.7954 -0.0964
18605SOL     OW55992   0.461   2.722   4.112  0.2135  0.4788  0.0918
18605SOL    HW155993   0.372   2.691   4.145  0.9554 -2.2258 -0.2181
18605SOL    HW255994   0.463   2.718   4.012  0.7546  0.2721  0.1069
18606SOL     OW55995   6.489   5.268   1.645 -0.1277  0.4855  0.4049
18606SOL    HW155996   6.586   5.269   1.621 -0.3762  1.0223 -0.6488
18606SOL    HW255997   6.455   5.174   1.643  0.3280  0.3113  0.6314
18607SOL     OW55998   0.940   2.092   0.858 -0.6205  0.0615  0.4592
18607SOL    HW155999   0.903   2.164   0.916  0.7223 -0.3210  1.8462
18607SOL    HW256000   0.891   2.007   0.876 -1.3325  0.3104 -0.2321
18608SOL     OW56001   3.371   3.238   8.371 -0.2489  0.7020  0.3458
18608SOL    HW156002   3.411   3.188   8.294  1.6256  1.7945  0.5536
18608SOL    HW256003   3.279   3.269   8.347 -0.5255 -0.7943 -0.6408
18609SOL     OW56004   8.747   6.302   5.930 -0.0355  0.8176  0.4271
18609SOL    HW156005   8.742   6.321   5.832  1.1214  0.7409  0.3402
18609SOL    HW256006   8.839   6.324   5.964  0.4199 -1.6054  0.9556
18610SOL     OW56007   6.490   8.478   3.376 -0.1298 -0.3182 -0.3538
18610SOL    HW156008   6.403   8.527   3.370  0.6469  0.9841 -1.5623
18610SOL    HW256009   6.474   8.380   3.361 -1.4682 -0.2105  0.2629
18611SOL     OW56010   2.842   0.071   0.564  0.1350  0.1689 -0.2097
18611SOL    HW156011   2.891   0.067   0.651 -0.0340 -1.9871 -0.1737
18611SOL    HW256012   2.744   0.081   0.582  0.2774  2.0674 -0.2454
18612SOL     OW56013   7.606   2.137   4.129 -0.1365  0.1192  0.4604
18612SOL    HW156014   7.585   2.150   4.226 -2.1775 -0.4278  0.1354
18612SOL    HW256015   7.612   2.040   4.109 -4.2666 -0.0914 -0.7181
18613SOL     OW56016   7.950   0.600   7.615  0.3103  0.2718 -0.2959
18613SOL    HW156017   7.923   0.637   7.526  1.2421 -0.1878 -0.7792
18613SOL    HW256018   7.951   0.674   7.682 -1.3975  0.4433 -0.4137
18614SOL     OW56019   1.683   2.598   0.983 -0.6037  0.5330 -0.5942
18614SOL    HW156020   1.596   2.606   0.935 -0.8528  0.3391 -0.1813
18614SOL    HW256021   1.748   2.665   0.947 -1.1809  1.2285 -0.3524
18615SOL     OW56022   4.186   3.896   0.008  0.3590 -0.6236 -0.1966
18615SOL    HW156023   4.270   3.850   0.038  0.1836 -1.3612 -0.8179
18615SOL    HW256024   4.124   3.830  -0.032  0.0502  0.1426 -1.0219
18616SOL     OW56025   6.063   0.218   2.185  0.0123 -0.7578 -0.2839
18616SOL    HW156026   6.107   0.175   2.106  0.0378 -0.6192 -0.3452
18616SOL    HW256027   6.073   0.318   2.179  0.4680 -0.7683  0.1578
18617SOL     OW56028   1.753   4.663   0.928 -0.2033 -0.3334 -0.8516
18617SOL    HW156029   1.743   4.691   1.023 -2.6073  0.4524 -1.2373
18617SOL    HW256030   1.784   4.568   0.923  2.0585  0.2720  0.6289
18618SOL     OW56031   8.109   6.880   6.767 -0.4173 -0.4422 -0.2876
18618SOL    HW156032   8.061   6.835   6.842  0.1588  0.0228  0.3798
18618SOL    HW256033   8.184   6.822   6.736  1.0775  0.4924  1.3729
18619SOL     OW56034   0.455   0.781   7.406  0.1931  0.0255 -0.3542
18619SOL    HW156035   0.438   0.812   7.312  1.2564 -0.2252 -0.6351
18619SOL    HW256036   0.367   0.765   7.452 -0.3581  1.5084 -0.8430
18620SOL     OW56037   4.244   4.953   0.750  0.1177  0.1856  0.3823
18620SOL    HW156038   4.290   4.980   0.665 -3.2130 -0.8517 -1.9358
18620SOL    HW256039   4.171   5.018   0.771 -2.0661 -1.9253 -0.2178
18621SOL     OW56040   0.197   5.199   3.565 -0.0816 -0.6659 -0.2726
18621SOL    HW156041   0.148   5.113   3.580  0.5035 -1.1881 -1.2161
18621SOL    HW256042   0.221   5.207   3.468 -0.8590  0.9695 -0.3564
18622SOL     OW56043   7.507   2.917   0.529 -0.6034  0.2512 -0.0021
18622SOL    HW156044   7.433   2.896   0.465  0.0026  1.2703 -1.0767
18622SOL    HW256045   7.592   2.873   0.497 -0.5459 -0.1701  0.7248
18623SOL     OW56046   5.325   4.713   2.284 -0.0932 -0.4720  0.6557
18623SOL    HW156047   5.349   4.769   2.205  3.5817 -1.9758  0.4963
18623SOL    HW256048   5.306   4.773   2.362 -2.1973  0.9901 -0.8684
18624SOL     OW56049   8.118   8.164   1.628  0.1160 -0.4657 -0.2076
18624SOL    HW156050   8.206   8.156   1.675 -0.1397 -3.4102 -0.0337
18624SOL    HW256051   8.044   8.148   1.693 -0.6874  2.8253 -0.1707
18625SOL     OW56052   4.405   2.487   0.421  1.1259 -0.7407 -0.2444
18625SOL    HW156053   4.411   2.557   0.350 -0.9857 -1.1576 -0.9212
18625SOL    HW256054   4.421   2.529   0.510  0.4977  0.5131 -0.6877
18626SOL     OW56055   0.995   5.896   4.641  0.0897 -0.7386  0.1155
18626SOL    HW156056   0.906   5.860   4.666 -0.4994  0.3021 -0.4351
18626SOL    HW256057   1.027   5.852   4.557 -0.8256  0.3112 -0.8003
18627SOL     OW56058   0.722   0.695   0.634 -0.5532  0.2279  0.1481
18627SOL    HW156059   0.800   0.706   0.695 -1.3856  0.9216  1.1156
18627SOL    HW256060   0.676   0.783   0.622 -0.3791  0.1248 -1.5366
18628SOL     OW56061   7.531   1.106   2.271 -0.3163 -0.0665  0.3428
18628SOL    HW156062   7.543   1.205   2.280  0.4920 -0.0338 -0.8076
18628SOL    HW256063   7.546   1.079   2.176 -1.8525 -1.1380  0.3748
18629SOL     OW56064   6.049   1.383   4.662  0.0852  0.1509 -0.5191
18629SOL    HW156065   6.030   1.443   4.584 -0.6017  0.7669  0.0987
18629SOL    HW256066   6.046   1.288   4.633 -0.8022  0.3467 -1.1181
18630SOL     OW56067   4.297   8.399   3.979 -0.1113  0.2090 -0.3188
18630SOL    HW156068   4.205   8.422   4.007 -1.5897 -0.9574 -3.6537
18630SOL    HW256069   4.297   8.309   3.935  2.8217 -0.2208  0.3410
18631SOL     OW56070   2.557   3.120   6.846  0.2436 -0.3333 -0.3192
18631SOL    HW156071   2.579   3.186   6.917 -2.6951 -0.9487  1.3150
18631SOL    HW256072   2.482   3.155   6.789 -0.8970 -1.8936  0.1392
18632SOL     OW56073   1.118   3.755   5.777  0.1083 -0.6039  0.8234
18632SOL    HW156074   1.197   3.757   5.714 -1.3233 -0.3584 -1.0604
18632SOL    HW256075   1.078   3.847   5.783 -1.8896 -1.2877 -0.8020
18633SOL     OW56076   4.410   5.699   5.238 -0.0335 -0.3337  0.6862
18633SOL    HW156077   4.375   5.736   5.324  3.1590  0.1594  1.8957
18633SOL    HW256078   4.347   5.629   5.204 -2.7286  1.2856  1.9538
18634SOL     OW56079   4.023   0.571   7.689 -0.5652  0.1922  0.3528
18634SOL    HW156080   4.096   0.638   7.704  0.1561 -0.6634  0.7180
18634SOL    HW256081   3.948   0.615   7.639 -0.2998  1.3931  0.9604
18635SOL     OW56082   5.609   5.098   2.995  0.4409 -0.2584 -0.1244
18635SOL    HW156083   5.608   5.010   2.946  1.0178 -1.7762  2.3715
18635SOL    HW256084   5.698   5.109   3.041  0.3062  1.5725 -0.2538
18636SOL     OW56085   8.519   3.715   2.799 -0.3240  0.3506  0.5204
18636SOL    HW156086   8.615   3.727   2.774 -1.0482  0.0212 -3.0015
18636SOL    HW256087   8.504   3.750   2.891  2.9712  1.1774  0.8827
18637SOL     OW56088   0.248   4.369   4.051 -0.0326  0.2670  0.7363
18637SOL    HW156089   0.286   4.317   3.975  0.8244 -0.0859  1.3902
18637SOL    HW256090   0.322   4.400   4.111 -0.6089  1.4358  0.8714
18638SOL     OW56091   2.988   3.681   3.260  0.0808 -0.2900  0.1795
18638SOL    HW156092   3.049   3.616   3.215  0.9237  0.3617  0.3534
18638SOL    HW256093   2.911   3.701   3.200  1.1741  0.5471 -0.9995
18639SOL     OW56094   1.566   5.469   5.392  0.0987  0.2368 -0.4477
18639SOL    HW156095   1.661   5.440   5.398  0.3138  0.9243 -0.5142
18639SOL    HW256096   1.556   5.535   5.318 -0.7829 -1.2270 -1.7036
18640SOL     OW56097   3.258   6.737   6.069 -0.4860  0.4841  0.3341
18640SOL    HW156098   3.313   6.661   6.035 -0.2122  0.5372  0.6479
18640SOL    HW256099   3.237   6.723   6.166  0.5895  1.3783  0.7253
18641SOL     OW56100   0.988   4.100   6.878 -0.0252 -0.5543 -0.0972
18641SOL    HW156101   0.984   4.056   6.788 -1.5778 -0.0349 -0.3179
18641SOL    HW256102   0.895   4.114   6.912  0.4332  1.5177  0.4653
18642SOL     OW56103   2.309   1.991   4.034  0.3775 -0.2628  0.1749
18642SOL    HW156104   2.286   2.004   3.938 -1.8339  0.7812  0.7867
18642SOL    HW256105   2.370   1.912   4.043  0.3006 -0.6333 -2.0094
18643SOL     OW56106   5.850   7.721   6.603  0.0392 -0.1038  0.4658
18643SOL    HW156107   5.829   7.819   6.602  0.4878  0.0030  0.8438
18643SOL    HW256108   5.772   7.671   6.640  0.6877  0.3679  2.6493
18644SOL     OW56109   3.830   2.849   3.692  0.0152 -0.3433  0.1640
18644SOL    HW156110   3.867   2.915   3.626 -0.2384 -0.2835  0.0810
18644SOL    HW256111   3.760   2.793   3.648 -0.1177 -0.3389  0.3651
18645SOL     OW56112   8.437   5.047   8.319  0.4334  0.0073 -0.0467
18645SOL    HW156113   8.375   4.969   8.315  0.2119  0.2134 -0.9606
18645SOL    HW256114   8.408   5.115   8.252  0.2306  1.1774  1.1952
18646SOL     OW56115   4.560   3.505   6.691  0.4565  0.2357  0.0916
18646SOL    HW156116   4.652   3.500   6.728  1.1452 -0.5514 -1.6033
18646SOL    HW256117   4.556   3.573   6.618 -0.4356  0.6215  0.4820
18647SOL     OW56118   7.319   5.786   1.519  0.0103 -0.0260 -0.1412
18647SOL    HW156119   7.300   5.720   1.445  0.9417  0.0055 -0.4169
18647SOL    HW256120   7.375   5.742   1.589  0.3863  0.3826 -0.1812
18648SOL     OW56121   2.938   5.884   0.451  0.0942  0.3836  0.2544
18648SOL    HW156122   2.924   5.894   0.549 -0.2217  1.0227  0.1494
18648SOL    HW256123   2.856   5.843   0.410  0.3396 -0.1604  0.2924
18649SOL     OW56124   7.300   0.068   0.808  0.3241 -0.4750  0.3685
18649SOL    HW156125   7.215   0.032   0.770  0.8765 -0.9229 -0.4749
18649SOL    HW256126   7.295   0.167   0.815 -0.2494 -0.4959  0.2847
18650SOL     OW56127   4.764   7.205   7.289  0.7585 -0.2837  0.2506
18650SOL    HW156128   4.824   7.125   7.297  1.5239  0.1805 -0.6361
18650SOL    HW256129   4.818   7.283   7.260 -0.3561  0.0689 -0.9210
18651SOL     OW56130   7.433   3.750   1.080 -0.2905 -0.7866 -0.3035
18651SOL    HW156131   7.518   3.728   1.129 -0.0211 -1.9887 -1.2725
18651SOL    HW256132   7.423   3.690   1.001  0.3452  2.3685 -3.0085
18652SOL     OW56133   4.974   7.216   6.466  0.2404 -0.1663  0.5400
18652SOL    HW156134   4.985   7.180   6.374 -1.1752  0.2726  0.1852
18652SOL    HW256135   4.927   7.304   6.463  3.2227  1.5947  1.4349
18653SOL     OW56136   2.114   2.198   7.590  0.0317  0.2877  0.6231
18653SOL    HW156137   2.162   2.113   7.611 -1.0178 -0.3533  0.5011
18653SOL    HW256138   2.178   2.275   7.595  0.8191 -0.4075  1.5339
18654SOL     OW56139   4.229   7.615   0.236  0.1083 -0.2358 -0.3001
18654SOL    HW156140   4.247   7.659   0.324  2.2928  0.6351 -1.1164
18654SOL    HW256141   4.289   7.536   0.225 -0.2860 -0.4560 -0.9227
18655SOL     OW56142   4.654   8.278   2.313 -0.0243  0.2136  0.0648
18655SOL    HW156143   4.557   8.260   2.297  0.4779 -1.5393 -1.2379
18655SOL    HW256144   4.704   8.270   2.227  1.6629 -1.5370  1.1318
18656SOL     OW56145   2.016   3.772   7.072 -0.0443  0.5462 -0.1627
18656SOL    HW156146   1.967   3.706   7.015  2.1109  0.6302 -2.2730
18656SOL    HW256147   2.039   3.730   7.160  0.1318 -1.0700 -0.9448
18657SOL     OW56148   4.230   1.883   6.084 -0.1019  0.0494  0.1670
18657SOL    HW156149   4.243   1.956   6.017 -1.2415  0.0699 -0.0667
18657SOL    HW256150   4.244   1.794   6.039  0.0932  0.0896  0.1476
18658SOL     OW56151   2.541   5.002   0.452  0.7508 -0.2040  0.3211
18658SOL    HW156152   2.457   5.020   0.503  1.1418 -0.2492  1.0049
18658SOL    HW256153   2.520   4.951   0.369  0.2269 -1.2144  1.0517
18659SOL     OW56154   0.590   1.185   4.628 -0.0930  0.4418 -0.4858
18659SOL    HW156155   0.613   1.282   4.628  1.4573  0.2180  2.6436
18659SOL    HW256156   0.671   1.131   4.605 -0.0293 -0.1281  0.9369
18660SOL     OW56157   6.939   1.230   6.107  0.0163  0.2556  0.3180
18660SOL    HW156158   6.928   1.266   6.015  0.2953 -2.5009 -0.8846
18660SOL    HW256159   7.036   1.211   6.124  0.0424  1.2091  1.4362
18661SOL     OW56160   5.416   5.737   7.118  0.5256  0.0977  0.5710
18661SOL    HW156161   5.371   5.675   7.182 -0.0256 -0.7670 -0.6092
18661SOL    HW256162   5.439   5.687   7.035  0.2561  1.4298 -0.3344
18662SOL     OW56163   0.659   7.778   3.887  0.2782 -0.4122  0.1883
18662SOL    HW156164   0.712   7.823   3.960 -0.3544  1.2071 -0.3084
18662SOL    HW256165   0.703   7.794   3.799 -0.8361  0.6976 -0.1956
18663SOL     OW56166   7.242   3.098   3.107  0.2678  0.7115 -0.2434
18663SOL    HW156167   7.298   3.043   3.168 -0.1260  1.3196  0.7005
18663SOL    HW256168   7.271   3.084   3.012  2.0654  1.0751  0.2113
18664SOL     OW56169   3.179   6.497   1.236  0.0472  0.0702 -0.3176
18664SOL    HW156170   3.134   6.425   1.184  0.2100 -0.4558  0.2514
18664SOL    HW256171   3.168   6.479   1.334  1.4438 -0.0530 -0.1620
18665SOL     OW56172   5.688   0.031   4.254 -0.2646  0.0718 -0.1072
18665SOL    HW156173   5.739  -0.038   4.203  0.5903 -0.2677  1.1418
18665SOL    HW256174   5.729   0.042   4.345 -1.2498  1.2132  0.2314
18666SOL     OW56175   4.783   4.949   1.926  0.0555  0.0238 -0.1614
18666SOL    HW156176   4.767   5.044   1.900  3.1921  0.5207 -0.7141
18666SOL    HW256177   4.773   4.890   1.846  0.5844  0.2733 -0.4182
18667SOL     OW56178   0.875   1.409   7.268 -0.1298  0.0655  0.4284
18667SOL    HW156179   0.973   1.403   7.254 -0.1926 -2.2028  0.6887
18667SOL    HW256180   0.835   1.318   7.271 -2.2468  0.9187  0.4523
18668SOL     OW56181   7.140   0.901   6.575 -0.1011  0.3847  0.8479
18668SOL    HW156182   7.222   0.936   6.620 -0.6327 -1.0092  3.1129
18668SOL    HW256183   7.084   0.977   6.543  0.0467  1.5496  3.1532
18669SOL     OW56184   8.606   5.903   6.245 -0.0402  0.5344  0.9037
18669SOL    HW156185   8.659   5.948   6.317  0.9651 -0.7518  0.9888
18669SOL    HW256186   8.663   5.891   6.164  0.1039 -1.6229  1.2792
18670SOL     OW56187   4.094   8.607   2.770 -0.5553 -0.4554 -0.5584
18670SOL    HW156188   4.129   8.701   2.773 -2.0048  0.1536 -1.7262
18670SOL    HW256189   4.055   8.583   2.859 -2.2584  0.9225 -0.8731
18671SOL     OW56190   1.140   7.159   8.162 -0.2293  0.0868 -0.2717
18671SOL    HW156191   1.045   7.146   8.191  0.0169  0.7904  0.8968
18671SOL    HW256192   1.201   7.115   8.228  0.3182  1.1330 -0.0691
18672SOL     OW56193   8.727   4.824   7.754 -0.1161  0.5568  0.1757
18672SOL    HW156194   8.827   4.827   7.763  0.4280  0.9610 -3.9846
18672SOL    HW256195   8.695   4.730   7.758  0.1257  0.5240  3.0902
18673SOL     OW56196   6.986   3.012   6.217  0.1711  0.2322 -0.9100
18673SOL    HW156197   7.060   3.020   6.283 -0.6365  1.9856 -0.1720
18673SOL    HW256198   6.915   2.951   6.253  1.0773 -1.2001 -1.4852
18674SOL     OW56199   1.997   5.326   4.352 -0.5835  0.3581  0.0172
18674SOL    HW156200   1.970   5.312   4.257  2.2613 -1.3751 -0.6584
18674SOL    HW256201   1.932   5.280   4.413  0.3392 -3.2294 -1.4476
18675SOL     OW56202   1.549   8.719   0.652  0.0160 -0.2285 -0.1882
18675SOL    HW156203   1.602   8.644   0.693 -0.6815 -0.7413 -0.2019
18675SOL    HW256204   1.611   8.792   0.623  0.4876  0.7598  2.9505
18676SOL     OW56205   7.469   8.797   0.322  0.3541  0.2152 -0.1581
18676SOL    HW156206   7.382   8.836   0.351  0.3888 -0.5934  1.1510
18676SOL    HW256207   7.452   8.711   0.274  0.3892  0.5707 -0.8092
18677SOL     OW56208   7.799   6.867   5.341 -0.1504 -0.4037 -0.1704
18677SOL    HW156209   7.713   6.917   5.332  0.5436  0.5812 -1.5968
18677SOL    HW256210   7.815   6.845   5.438 -0.6021  1.9083  0.4766
18678SOL     OW56211   1.870   6.780   6.362 -0.1065 -0.1928  0.2861
18678SOL    HW156212   1.939   6.710   6.383 -0.7157 -1.1339 -0.7393
18678SOL    HW256213   1.915   6.861   6.325  0.7086  0.3980  2.4145
18679SOL     OW56214   2.113   8.731   8.104 -0.7697 -0.8053 -0.1229
18679SOL    HW156215   2.172   8.804   8.138 -0.7384 -0.1975 -1.4281
18679SOL    HW256216   2.051   8.768   8.035 -3.2666 -1.2430  1.7386
18680SOL     OW56217   1.163   0.680   6.790  0.4924 -0.3813  0.4753
18680SOL    HW156218   1.109   0.609   6.836 -0.8004 -0.8782 -1.6369
18680SOL    HW256219   1.211   0.639   6.713  0.0949  0.9257 -0.5077
18681SOL     OW56220   2.889   3.530   6.803  0.5690  0.0453  0.7683
18681SOL    HW156221   2.830   3.508   6.725  1.4505 -0.2461  0.1678
18681SOL    HW256222   2.840   3.590   6.866 -0.6632 -0.8317  0.6953
18682SOL     OW56223   1.625   8.179   2.659 -0.5151 -0.1781  0.0882
18682SOL    HW156224   1.594   8.131   2.741  0.8982 -0.2017  0.6376
18682SOL    HW256225   1.668   8.265   2.684  2.4679 -1.4186 -0.2708
18683SOL     OW56226   1.997   4.370   4.610 -0.4544  0.7485 -0.2554
18683SOL    HW156227   1.923   4.343   4.549  0.4842 -1.7497 -0.4307
18683SOL    HW256228   1.961   4.382   4.703 -1.3036  0.9276 -0.5990
18684SOL     OW56229   6.095   5.206   5.179  0.2751 -0.2138 -0.3299
18684SOL    HW156230   6.192   5.212   5.205  0.9871 -2.0672 -2.2944
18684SOL    HW256231   6.075   5.275   5.109  0.4087 -0.4235 -0.5743
18685SOL     OW56232   0.309   0.289   6.382  0.1023 -1.0506 -0.0377
18685SOL    HW156233   0.308   0.218   6.453  0.2813 -2.1321 -1.0894
18685SOL    HW256234   0.243   0.266   6.311 -0.4185  0.2762  0.0025
18686SOL     OW56235   6.855   3.046   4.351 -0.2047  0.1646  0.0928
18686SOL    HW156236   6.842   2.978   4.279 -0.9081  1.1168 -0.7069
18686SOL    HW256237   6.793   3.123   4.337 -0.7656  0.1353  2.0549
18687SOL     OW56238   1.357   2.670   5.886  0.0301  0.1256  0.0124
18687SOL    HW156239   1.421   2.595   5.903 -0.7415 -0.7888 -0.9224
18687SOL    HW256240   1.264   2.633   5.880 -0.1596  0.7992 -2.5084
18688SOL     OW56241   8.504   6.178   5.597 -0.4573  0.3490 -0.0139
18688SOL    HW156242   8.453   6.241   5.537  0.0872  2.4130  1.5742
18688SOL    HW256243   8.439   6.124   5.651 -1.0448  2.3090  1.3442
18689SOL     OW56244   3.201   3.953   4.366 -0.3654  0.3685  0.1249
18689SOL    HW156245   3.184   3.858   4.394  2.6167 -0.2982 -0.0133
18689SOL    HW256246   3.230   3.955   4.270  1.9786  1.0367  0.7775
18690SOL     OW56247   2.365   5.431   2.010  0.2726  0.5354  0.4204
18690SOL    HW156248   2.366   5.503   1.941 -1.5943  0.0815 -0.1564
18690SOL    HW256249   2.456   5.390   2.018  0.9025  1.6863 -0.5808
18691SOL     OW56250   2.520   0.354   3.464  0.3787 -0.1409 -0.9504
18691SOL    HW156251   2.524   0.445   3.504  0.8655 -0.6890  0.3087
18691SOL    HW256252   2.580   0.350   3.384 -1.3713  1.2494 -2.4096
18692SOL     OW56253   4.037   6.501   0.166 -0.0347 -0.8033  0.3015
18692SOL    HW156254   4.125   6.547   0.181  0.3559 -1.4603  0.0764
18692SOL    HW256255   3.993   6.539   0.085 -0.0409 -0.3575  0.5102
18693SOL     OW56256   0.361   2.891   6.828 -0.4446 -0.6457 -0.2910
18693SOL    HW156257   0.278   2.840   6.806 -1.4324 -0.3508  2.3776
18693SOL    HW256258   0.337   2.982   6.862  1.0914  0.1333 -1.1390
18694SOL     OW56259   2.345   3.186   1.852 -0.2603  0.0810  0.1223
18694SOL    HW156260   2.388   3.104   1.889  1.9547  0.9745 -0.2857
18694SOL    HW256261   2.384   3.207   1.762 -1.3699  1.1245 -0.1449
18695SOL     OW56262   7.475   3.117   8.319  0.1698  0.1970  0.1975
18695SOL    HW156263   7.490   3.204   8.365 -0.5348 -0.4256  1.6520
18695SOL    HW256264   7.415   3.059   8.374 -0.5951 -0.6436 -1.4458
18696SOL     OW56265   7.220   8.834   5.891  0.1234  0.5134  0.7630
18696SOL    HW156266   7.157   8.814   5.966 -0.1140 -0.3757  0.3512
18696SOL    HW256267   7.201   8.925   5.855 -0.5518  0.4818  1.0180
18697SOL     OW56268   7.787   5.956   6.727  1.0465 -0.3330  0.2769
18697SOL    HW156269   7.735   6.025   6.677 -0.4803 -0.2364  1.8968
18697SOL    HW256270   7.767   5.865   6.689 -0.3369 -0.2935  0.8392
18698SOL     OW56271   0.965   8.546   4.622 -0.0531  1.2034  1.1014
18698SOL    HW156272   0.983   8.599   4.539  1.5213 -0.1115  0.5444
18698SOL    HW256273   0.971   8.449   4.602  0.5206  0.8543  2.7745
18699SOL     OW56274   7.448   4.388   4.954  0.0032 -0.0756  0.1082
18699SOL    HW156275   7.492   4.439   4.880  0.3595 -0.0721  0.3176
18699SOL    HW256276   7.384   4.322   4.915  1.7201 -1.5460 -0.3412
18700SOL     OW56277   7.237   0.479   7.402  0.5810 -0.6521 -0.0227
18700SOL    HW156278   7.234   0.474   7.302  0.8218 -3.1727  0.0429
18700SOL    HW256279   7.162   0.426   7.441  1.0083 -0.4241  1.1522
18701SOL     OW56280   4.821   4.997   7.519 -0.3017 -0.1813 -0.1189
18701SOL    HW156281   4.886   5.037   7.584 -0.4711  0.3729 -0.2863
18701SOL    HW256282   4.835   5.038   7.429 -0.2929 -0.7047 -0.3566
18702SOL     OW56283   6.249   8.287   4.752 -0.3445  0.2224  0.0268
18702SOL    HW156284   6.242   8.270   4.851 -0.8268  1.4949  0.2251
18702SOL    HW256285   6.294   8.374   4.736 -0.2813  0.0263 -0.8847
18703SOL     OW56286   1.932   6.281   6.930 -0.5510  0.4714  0.3958
18703SOL    HW156287   1.833   6.265   6.929 -0.2748 -1.4578  0.0094
18703SOL    HW256288   1.967   6.270   7.023 -0.5109 -0.1437  0.3070
18704SOL     OW56289   2.466   4.176   5.098  0.0002 -0.0382 -0.3985
18704SOL    HW156290   2.492   4.186   5.002  0.8617  1.1327 -0.0595
18704SOL    HW256291   2.367   4.160   5.105 -0.0908  0.0366 -1.4633
18705SOL     OW56292   2.578   1.441   2.197  0.1750  0.0305  0.0061
18705SOL    HW156293   2.573   1.500   2.278 -1.7171 -0.7245  0.5016
18705SOL    HW256294   2.660   1.463   2.144 -1.1344  4.1660 -0.6682
18706SOL     OW56295   0.166   0.317   4.255  0.1574  0.4513 -0.3069
18706SOL    HW156296   0.163   0.225   4.295  0.9407  0.3757 -0.4086
18706SOL    HW256297   0.253   0.360   4.278 -0.2757  1.2433 -0.1107
18707SOL     OW56298   7.276   6.742   0.496 -0.2064 -0.0131 -0.2523
18707SOL    HW156299   7.368   6.775   0.517 -0.5115  0.4343  0.3995
18707SOL    HW256300   7.271   6.715   0.399  1.2814 -2.3218  0.2339
18708SOL     OW56301   1.247   4.830   0.571 -0.9014  0.0738  0.5147
18708SOL    HW156302   1.169   4.812   0.512  0.1329  1.6723 -1.4400
18708SOL    HW256303   1.288   4.918   0.548 -0.2369  0.6666  3.4409
18709SOL     OW56304   3.476   1.630   1.375  0.4469  0.2893  0.1810
18709SOL    HW156305   3.532   1.573   1.315 -1.6671 -0.1929 -1.4472
18709SOL    HW256306   3.486   1.726   1.348  1.2288  0.3316  0.5743
18710SOL     OW56307   4.756   0.680   8.391 -0.5856 -0.3735 -0.1711
18710SOL    HW156308   4.670   0.629   8.394 -2.2886  2.3196  1.9517
18710SOL    HW256309   4.831   0.620   8.419 -1.9566 -2.4653 -0.7828
18711SOL     OW56310   2.406   4.935   2.605 -0.4303 -0.1465  0.3358
18711SOL    HW156311   2.384   5.009   2.668 -2.5298 -0.5409  0.1354
18711SOL    HW256312   2.358   4.949   2.518  1.1281 -0.4567 -0.6219
18712SOL     OW56313   4.600   0.950   8.304  0.2390 -0.8146  0.1291
18712SOL    HW156314   4.665   0.956   8.380  1.1505 -1.1265 -0.6173
18712SOL    HW256315   4.639   0.897   8.230 -0.0735  0.6365 -1.1348
18713SOL     OW56316   0.121   1.170   5.203  0.4828 -0.3118  0.7113
18713SOL    HW156317   0.206   1.207   5.163  0.4044  0.0404  0.8720
18713SOL    HW256318   0.137   1.076   5.233  0.2452 -0.9878 -1.1525
18714SOL     OW56319   6.935   3.240   8.608 -0.9793  1.1752 -0.3642
18714SOL    HW156320   6.952   3.339   8.614  1.0069  0.8396  0.5163
18714SOL    HW256321   6.942   3.200   8.699  0.7838 -0.1020 -0.9970
18715SOL     OW56322   5.748   4.811   4.292  0.6434 -0.4598 -0.6610
18715SOL    HW156323   5.813   4.852   4.356  1.4742 -1.5652 -0.7745
18715SOL    HW256324   5.772   4.836   4.199  0.1134  0.2026 -0.6294
18716SOL     OW56325   3.630   2.339   0.662 -0.1666 -0.0406 -0.0741
18716SOL    HW156326   3.582   2.393   0.592 -1.6197 -1.0734  0.0779
18716SOL    HW256327   3.687   2.270   0.617  1.0604  1.0589 -0.2544
18717SOL     OW56328   2.876   3.421   4.528 -0.2260 -0.2303 -0.4303
18717SOL    HW156329   2.904   3.325   4.534 -2.2815 -0.8271  0.6985
18717SOL    HW256330   2.800   3.429   4.463 -1.3549  0.2676  0.9154
18718SOL     OW56331   6.718   3.846   0.032 -0.3778 -0.7022 -0.5639
18718SOL    HW156332   6.666   3.836  -0.053  0.4531  0.5960 -1.2494
18718SOL    HW256333   6.681   3.922   0.085 -1.4733 -2.0534  0.7262
18719SOL     OW56334   7.620   1.055   8.595  0.4084  0.4757 -0.5031
18719SOL    HW156335   7.553   0.984   8.575 -0.6253  1.4180 -0.4296
18719SOL    HW256336   7.676   1.072   8.514 -0.9029  1.2368 -1.2661
18720SOL     OW56337   8.034   2.100   5.908 -0.2785 -0.2747 -0.3522
18720SOL    HW156338   7.962   2.059   5.965 -1.0464 -0.1611 -1.2122
18720SOL    HW256339   8.110   2.036   5.900 -0.7275 -0.8287 -0.2694
18721SOL     OW56340   7.263   1.682   6.257  0.2933 -0.2083 -0.1172
18721SOL    HW156341   7.356   1.706   6.232  0.9143 -1.8076  0.5271
18721SOL    HW256342   7.200   1.709   6.184  1.5036 -0.9215 -1.4496
18722SOL     OW56343   1.118   0.371   3.236 -0.3142  0.1543  0.1864
18722SOL    HW156344   1.147   0.291   3.289 -0.3120 -0.4721 -0.7467
18722SOL    HW256345   1.123   0.452   3.294  1.7200 -0.1854  0.5451
18723SOL     OW56346   5.367   3.584   2.628  0.2011 -0.0064  0.3853
18723SOL    HW156347   5.281   3.543   2.658  1.0953 -2.4112 -0.0576
18723SOL    HW256348   5.377   3.573   2.529  2.2649 -2.6241  0.7515
18724SOL     OW56349   2.843   3.286   4.108  0.2614  0.0414 -0.0836
18724SOL    HW156350   2.898   3.318   4.185  0.0574  1.0876 -0.3584
18724SOL    HW256351   2.862   3.343   4.028 -2.3565  1.4661  0.2033
18725SOL     OW56352   0.879   7.785   6.577  0.2438  0.0527  0.6092
18725SOL    HW156353   0.805   7.746   6.631  1.7231 -1.3427  1.7093
18725SOL    HW256354   0.878   7.745   6.485 -0.7156  0.5097  0.4065
18726SOL     OW56355   3.260   2.649   6.634  0.6737  0.2681  0.1763
18726SOL    HW156356   3.239   2.559   6.595  0.9216  0.7253 -1.0438
18726SOL    HW256357   3.281   2.713   6.561 -2.5936  2.1966  0.7574
18727SOL     OW56358   2.490   4.109   6.030 -0.4074  0.4999 -0.4246
18727SOL    HW156359   2.555   4.068   5.966 -0.1049  0.0916  0.1361
18727SOL    HW256360   2.516   4.205   6.046  0.0306  0.3554 -0.2418
18728SOL     OW56361   2.891   6.156   6.659 -0.9170 -0.3041 -0.1933
18728SOL    HW156362   2.888   6.105   6.573 -1.0327 -0.6478  0.0085
18728SOL    HW256363   2.953   6.233   6.650 -0.4740 -0.6789 -0.3999
18729SOL     OW56364   7.296   1.607   6.938 -0.2799  0.5115  0.3868
18729SOL    HW156365   7.209   1.642   6.905 -0.2393  0.4455  0.2071
18729SOL    HW256366   7.359   1.595   6.861 -0.9431 -1.8384  0.1199
18730SOL     OW56367   7.162   5.705   0.145  0.6375  0.0090 -0.3890
18730SOL    HW156368   7.252   5.682   0.108  2.3153  6.0426 -1.1471
18730SOL    HW256369   7.169   5.715   0.244  0.9101  0.7156 -0.4746
18731SOL     OW56370   5.580   8.703   8.176 -0.2960 -0.1853  0.3515
18731SOL    HW156371   5.673   8.673   8.201 -0.5968 -0.7820  0.7797
18731SOL    HW256372   5.567   8.690   8.078 -0.5464 -1.8752  0.5762
18732SOL     OW56373   1.602   3.987   7.233 -0.2957 -0.2865  0.1522
18732SOL    HW156374   1.701   3.990   7.229 -0.2878  2.7513  0.0876
18732SOL    HW256375   1.572   3.983   7.329 -0.0522  0.7956  0.2906
18733SOL     OW56376   3.181   2.105   0.285  0.1943 -0.7274  0.6941
18733SOL    HW156377   3.183   2.150   0.374  0.3033 -1.0959  0.8797
18733SOL    HW256378   3.218   2.013   0.293 -0.0071 -0.8457  0.3108
18734SOL     OW56379   8.634   6.837   6.564  0.3572 -1.0969  0.0933
18734SOL    HW156380   8.678   6.755   6.600  0.7919 -2.3338 -2.9245
18734SOL    HW256381   8.556   6.812   6.506 -1.0383  0.7955  1.0148
18735SOL     OW56382   7.414   7.485   4.314 -0.2749 -0.2048  0.4755
18735SOL    HW156383   7.432   7.404   4.370 -1.4251 -0.2257  0.8408
18735SOL    HW256384   7.440   7.567   4.365  2.4080 -0.3426 -0.4858
18736SOL     OW56385   1.702   5.131   0.923 -1.1430  0.6885  0.3555
18736SOL    HW156386   1.643   5.123   1.004 -0.7309  0.9636  0.6897
18736SOL    HW256387   1.730   5.226   0.912  0.0576  0.4087  0.8012
18737SOL     OW56388   7.853   3.735   6.095  0.2183  0.1961 -0.0270
18737SOL    HW156389   7.838   3.702   6.188  0.5514  0.3262  0.0774
18737SOL    HW256390   7.952   3.748   6.081  0.0527  1.8612  0.1877
18738SOL     OW56391   6.516   4.508   8.858  0.5568  0.0141 -0.2018
18738SOL    HW156392   6.608   4.504   8.821 -0.4391  0.4608 -2.9389
18738SOL    HW256393   6.494   4.603   8.882  0.3015  0.1676 -1.0146
18739SOL     OW56394   0.375   1.542   8.309  0.8977  0.1730 -0.4741
18739SOL    HW156395   0.401   1.617   8.370  3.4237  0.5208 -1.8163
18739SOL    HW256396   0.452   1.478   8.301  0.1423 -0.5863 -2.2062
18740SOL     OW56397   8.579   1.900   5.676  0.1170 -0.7535  0.0854
18740SOL    HW156398   8.601   1.961   5.600 -0.8096 -0.4039  0.0842
18740SOL    HW256399   8.663   1.872   5.722  0.5199  1.1099  0.5525
18741SOL     OW56400   3.552   8.042   2.071  0.0437  0.8519  0.0526
18741SOL    HW156401   3.466   8.033   2.121  0.7290 -0.6657  1.0484
18741SOL    HW256402   3.534   8.045   1.973 -1.0889 -1.3729  0.1258
18742SOL     OW56403   6.920   7.596   7.030  0.0559 -0.6136 -0.0874
18742SOL    HW156404   6.968   7.558   7.109 -1.5359 -1.7878  0.3573
18742SOL    HW256405   6.938   7.539   6.950  0.4629 -0.2717 -0.2476
18743SOL     OW56406   1.989   0.952   0.908  0.1741 -0.4217 -0.1575
18743SOL    HW156407   2.028   0.879   0.964  0.2948 -0.0343  0.2761
18743SOL    HW256408   2.051   1.031   0.909  0.5754 -0.6850 -1.4884
18744SOL     OW56409   0.768   1.585   7.088 -0.0760 -0.5046  0.0322
18744SOL    HW156410   0.806   1.510   7.143 -1.8743 -2.3713 -1.0813
18744SOL    HW256411   0.756   1.553   6.994  0.3774  1.6986 -0.8228
18745SOL     OW56412   5.735   3.827   4.329  0.9574 -0.3866 -0.2345
18745SOL    HW156413   5.725   3.926   4.344  0.0880 -0.4034 -0.7004
18745SOL    HW256414   5.778   3.811   4.240 -1.3689 -0.4678 -1.4017
18746SOL     OW56415   2.794   4.520   6.132  0.0440 -0.3048  0.0595
18746SOL    HW156416   2.891   4.504   6.115  0.1082 -1.5586  1.3991
18746SOL    HW256417   2.783   4.606   6.182  0.6813 -1.0288  1.5198
18747SOL     OW56418   0.976   1.027   5.671 -0.0838 -0.3695 -0.4276
18747SOL    HW156419   0.989   1.055   5.766 -0.4756 -0.0678 -0.4606
18747SOL    HW256420   1.023   1.091   5.611 -0.1185 -0.3691 -0.4544
18748SOL     OW56421   7.483   5.741   7.823 -0.0328  0.3204 -0.1122
18748SOL    HW156422   7.534   5.803   7.763  0.5670  0.9939  1.0718
18748SOL    HW256423   7.409   5.791   7.867 -1.3286 -0.4889 -1.2777
18749SOL     OW56424   6.240   7.694   0.863 -0.5143  0.1911  0.1813
18749SOL    HW156425   6.220   7.750   0.783  0.8158 -1.6216 -1.5211
18749SOL    HW256426   6.320   7.732   0.910  0.9442 -0.6890 -1.4811
18750SOL     OW56427   4.589   4.940   0.060  0.6140 -0.7687  0.3167
18750SOL    HW156428   4.604   4.930  -0.039 -2.4720  1.0829 -0.4847
18750SOL    HW256429   4.582   4.849   0.101 -0.2378 -1.6679 -1.6358
18751SOL     OW56430   3.216   3.504   1.858  0.0256  0.2405 -0.1391
18751SOL    HW156431   3.226   3.418   1.807  1.3290  0.2832  0.0011
18751SOL    HW256432   3.155   3.489   1.935 -0.5327 -0.2995 -0.6656
18752SOL     OW56433   0.498   7.578   2.000  0.3158  0.0593  0.3051
18752SOL    HW156434   0.490   7.566   1.901 -0.1088 -1.2207  0.4757
18752SOL    HW256435   0.409   7.561   2.043  0.1694  1.9174  0.8085
18753SOL     OW56436   5.571   2.136   7.911 -0.0266 -0.2476 -0.3567
18753SOL    HW156437   5.619   2.060   7.866  0.3461  0.2200 -0.7639
18753SOL    HW256438   5.569   2.121   8.010 -0.3810 -1.0216 -0.4763
18754SOL     OW56439   6.915   7.592   0.306 -0.1845  0.3706 -0.2032
18754SOL    HW156440   6.992   7.628   0.359  0.3633  0.3426 -0.9720
18754SOL    HW256441   6.830   7.605   0.358 -0.3118  4.4192 -1.1420
18755SOL     OW56442   7.679   3.092   5.619 -0.1876 -0.1903 -0.2479
18755SOL    HW156443   7.588   3.111   5.654 -0.8442 -1.4362 -1.2173
18755SOL    HW256444   7.672   3.044   5.531  1.3790  1.8856 -1.6184
18756SOL     OW56445   0.951   6.791   2.088 -0.1082  0.4119 -0.3407
18756SOL    HW156446   0.909   6.876   2.058 -1.7694 -0.1584  0.2459
18756SOL    HW256447   0.900   6.713   2.050 -0.5729 -0.3049  1.6306
18757SOL     OW56448   8.063   4.860   8.070 -0.6551  0.4286 -0.3277
18757SOL    HW156449   7.967   4.832   8.068 -0.2704 -1.3382  1.8773
18757SOL    HW256450   8.114   4.810   8.001 -0.8020 -1.0527  0.5917
18758SOL     OW56451   1.190   0.873   2.451 -0.3258 -0.0641 -0.8245
18758SOL    HW156452   1.107   0.818   2.457 -0.5589  0.1095 -2.2321
18758SOL    HW256453   1.241   0.866   2.538 -1.3385 -0.8917 -0.2777
18759SOL     OW56454   6.722   1.484   3.618  0.1105 -0.2521  0.2141
18759SOL    HW156455   6.808   1.522   3.652 -0.9460  0.6182  2.0272
18759SOL    HW256456   6.653   1.556   3.613 -0.9585 -1.2336  0.2620
18760SOL     OW56457   7.898   3.234   1.914  0.0519  0.8055 -0.4092
18760SOL    HW156458   7.976   3.260   1.858  0.9910  0.6974  0.7968
18760SOL    HW256459   7.910   3.272   2.006 -1.6911  1.4255 -0.3977
18761SOL     OW56460   7.496   4.220   7.696  0.0037  0.4216 -0.0466
18761SOL    HW156461   7.513   4.229   7.794  0.5892  0.7811 -0.1770
18761SOL    HW256462   7.491   4.124   7.672  0.3986  0.3235  0.2465
18762SOL     OW56463   6.563   0.761   5.604 -0.4960 -1.0534  0.3900
18762SOL    HW156464   6.521   0.841   5.560  0.1980 -0.3214  1.0155
18762SOL    HW256465   6.528   0.753   5.697  0.7980 -0.3575  0.9640
18763SOL     OW56466   2.280   7.317   1.000  0.2899  0.5643 -0.3818
18763SOL    HW156467   2.214   7.376   0.954 -0.1147 -0.7490 -1.5448
18763SOL    HW256468   2.237   7.273   1.078 -0.1015  0.0468 -0.8802
18764SOL     OW56469   0.623   3.837   0.305  0.4969  0.2919 -0.6664
18764SOL    HW156470   0.556   3.782   0.355  2.3876 -2.2201 -0.6615
18764SOL    HW256471   0.713   3.826   0.349  1.5635  0.7220 -2.6451
18765SOL     OW56472   5.235   4.446   1.876 -0.5637  0.0270  0.5947
18765SOL    HW156473   5.249   4.453   1.975 -0.9073  0.1525  0.6363
18765SOL    HW256474   5.153   4.497   1.850 -0.7172 -0.3542  0.3047
18766SOL     OW56475   8.410   2.058   2.490 -0.1648 -1.0673  0.0056
18766SOL    HW156476   8.343   2.076   2.562  0.5261  0.2387  0.3482
18766SOL    HW256477   8.500   2.088   2.520 -0.1010  0.9597 -1.9215
18767SOL     OW56478   6.582   5.663   6.048  0.2646 -0.1508  0.1534
18767SOL    HW156479   6.647   5.590   6.068  0.5351  0.0603  0.0658
18767SOL    HW256480   6.534   5.689   6.132  0.2058 -0.3898  0.1948
18768SOL     OW56481   0.038   0.061   5.195  0.3796 -0.2842 -0.4785
18768SOL    HW156482  -0.006   0.141   5.153  0.9352  0.7170  0.7864
18768SOL    HW256483   0.135   0.080   5.210  0.0432 -0.2072  2.0705
18769SOL     OW56484   2.297   3.951   1.189 -0.1497  0.1496 -0.2429
18769SOL    HW156485   2.266   4.040   1.221 -1.2411 -0.1177 -0.5344
18769SOL    HW256486   2.379   3.924   1.241  0.3975  1.4552 -0.3915
18770SOL     OW56487   5.266   7.695   3.791 -0.4423  0.4709 -0.0758
18770SOL    HW156488   5.166   7.686   3.782 -0.6322  1.3969  0.8632
18770SOL    HW256489   5.293   7.788   3.768  0.1286  0.4088  0.3244
18771SOL     OW56490   7.623   6.663   6.214  0.3641 -0.2224 -0.2574
18771SOL    HW156491   7.696   6.706   6.266 -0.0201 -0.5898  0.6033
18771SOL    HW256492   7.576   6.596   6.271 -1.2489  0.6556 -0.4770
18772SOL     OW56493   1.698   2.513   4.565  0.4301 -0.4932 -0.5136
18772SOL    HW156494   1.603   2.498   4.594  0.7580 -2.7135 -0.4251
18772SOL    HW256495   1.760   2.476   4.634  1.3806  0.5942 -0.7544
18773SOL     OW56496   3.492   0.977   0.682  0.0155  0.0833  0.3367
18773SOL    HW156497   3.392   0.971   0.682 -0.0321  0.7719 -0.2860
18773SOL    HW256498   3.520   1.066   0.719  0.2778  1.2859 -2.4921
18774SOL     OW56499   0.273   2.177   4.430 -0.3203  0.5920  0.3009
18774SOL    HW156500   0.348   2.223   4.477 -0.0506  0.7103 -0.2456
18774SOL    HW256501   0.205   2.245   4.401 -0.0318  0.6226 -0.3054
18775SOL     OW56502   4.784   0.102   1.921  0.4868 -0.2230  0.2645
18775SOL    HW156503   4.845   0.053   1.983  2.0709  0.2313 -0.8724
18775SOL    HW256504   4.807   0.079   1.826  0.8167  2.1545 -0.2810
18776SOL     OW56505   5.814   3.672   2.563  0.0911 -0.3859  0.1025
18776SOL    HW156506   5.779   3.764   2.584  3.2606  0.5227  2.1514
18776SOL    HW256507   5.785   3.608   2.634 -1.5594 -0.8972 -0.9718
18777SOL     OW56508   8.696   1.748   6.052 -0.2048  0.6558 -0.5900
18777SOL    HW156509   8.745   1.813   5.995  0.9570  0.7383  0.4595
18777SOL    HW256510   8.761   1.699   6.111 -1.1162 -0.9910 -0.8823
18778SOL     OW56511   2.953   2.650   7.864  0.0943 -0.2131 -0.1941
18778SOL    HW156512   2.865   2.655   7.817  0.6179  2.4686 -1.0648
18778SOL    HW256513   2.940   2.606   7.953 -1.7696 -1.3641 -0.9572
18779SOL     OW56514   4.077   7.347   5.183  0.0478 -1.0185 -0.2239
18779SOL    HW156515   4.101   7.330   5.278  1.6689 -1.8724 -0.7487
18779SOL    HW256516   4.146   7.306   5.123 -0.3931  0.3798 -1.7554
18780SOL     OW56517   8.688   5.942   7.612  0.7516 -0.5792  0.1014
18780SOL    HW156518   8.591   5.963   7.624  0.8993  0.8169 -0.8354
18780SOL    HW256519   8.742   5.999   7.673  1.1152  1.1617 -1.7565
18781SOL     OW56520   5.600   1.659   6.505  0.0009  0.0708  0.7161
18781SOL    HW156521   5.539   1.643   6.428 -0.6276 -0.1404  1.2399
18781SOL    HW256522   5.647   1.746   6.493  1.9736 -1.1524 -1.2083
18782SOL     OW56523   8.253   0.144   1.643 -0.3760 -0.2444 -0.2010
18782SOL    HW156524   8.214   0.057   1.613  1.1973 -0.3302 -2.2047
18782SOL    HW256525   8.352   0.142   1.630 -0.5090  2.6541 -2.6001
18783SOL     OW56526   0.688   7.651   4.277  0.1828 -0.0276 -0.1426
18783SOL    HW156527   0.629   7.708   4.220 -0.4039 -1.3017 -0.8333
18783SOL    HW256528   0.632   7.590   4.333  0.8077 -0.0914  0.4253
18784SOL     OW56529   1.074   8.497   1.502  0.1329 -0.1067 -0.0949
18784SOL    HW156530   0.984   8.507   1.545  0.6835  0.5009  0.9431
18784SOL    HW256531   1.084   8.566   1.430  0.1740  0.5432  0.5219
18785SOL     OW56532   7.903   4.371   1.616  0.1702  0.2656 -0.0401
18785SOL    HW156533   7.980   4.389   1.676  1.5022 -0.4047 -1.4764
18785SOL    HW256534   7.902   4.439   1.542 -0.3013 -0.0469 -0.3254
18786SOL     OW56535   8.339   8.670   1.565  0.1736  0.2344 -0.3859
18786SOL    HW156536   8.252   8.719   1.568  0.4298  0.6749 -0.1029
18786SOL    HW256537   8.321   8.572   1.555 -0.4331  0.1126  1.4523
18787SOL     OW56538   4.256   7.086   3.231 -0.1007  0.0127 -0.8485
18787SOL    HW156539   4.199   7.161   3.197 -0.3357 -0.4263 -1.4412
18787SOL    HW256540   4.349   7.096   3.195 -0.1322  0.0142 -0.9287
18788SOL     OW56541   0.984   4.354   7.113  0.7115  0.0947 -0.1567
18788SOL    HW156542   1.046   4.429   7.089  0.9368 -0.0234  0.0551
18788SOL    HW256543   0.950   4.310   7.030  0.2840  0.6689 -0.2966
18789SOL     OW56544   6.846   5.143   1.181 -0.3567 -0.1186  0.1244
18789SOL    HW156545   6.810   5.236   1.182 -2.1490 -0.7767  0.4847
18789SOL    HW256546   6.783   5.082   1.229  2.0174 -1.1155  2.2522
18790SOL     OW56547   6.674   5.046   2.835 -0.4879 -0.6369  0.6318
18790SOL    HW156548   6.606   5.063   2.764 -0.8026 -1.8113  0.6336
18790SOL    HW256549   6.641   5.083   2.922 -0.2036  0.6002  0.2254
18791SOL     OW56550   6.799   2.379   5.924 -0.1944 -0.0979  0.1339
18791SOL    HW156551   6.714   2.330   5.902 -0.1816 -0.0393 -0.0474
18791SOL    HW256552   6.862   2.318   5.971 -0.3455 -0.1372  0.2823
18792SOL     OW56553   4.186   0.009   6.401 -0.5269 -0.3967 -0.0623
18792SOL    HW156554   4.276  -0.025   6.428 -0.2322 -0.3852 -0.9775
18792SOL    HW256555   4.159   0.084   6.461  0.3180 -0.0360 -0.1188
18793SOL     OW56556   5.857   3.806   5.246 -0.0653  0.2901  0.0171
18793SOL    HW156557   5.765   3.846   5.249  0.0560  0.5307  1.0512
18793SOL    HW256558   5.923   3.877   5.223 -0.1912 -0.0156 -1.3691
18794SOL     OW56559   0.861   1.149   7.037  0.1704 -0.6176  0.0263
18794SOL    HW156560   0.881   1.065   6.986 -0.0815 -1.0558  0.6298
18794SOL    HW256561   0.874   1.132   7.135  0.1722  0.0674  0.1487
18795SOL     OW56562   4.077   6.470   3.360 -0.2965 -0.7733  0.2754
18795SOL    HW156563   4.074   6.564   3.392 -0.0679  0.0569 -1.9635
18795SOL    HW256564   4.141   6.417   3.415  0.3318  0.6353  0.9381
18796SOL     OW56565   8.046   5.547   4.343 -0.0423  0.0940  0.4451
18796SOL    HW156566   8.088   5.469   4.390  1.5230  1.0080  0.6398
18796SOL    HW256567   7.999   5.604   4.411  2.1075  1.3433  0.9874
18797SOL     OW56568   8.649   0.799   8.714 -0.0423 -0.6884 -0.0217
18797SOL    HW156569   8.559   0.767   8.746 -0.8950  0.8056 -0.8186
18797SOL    HW256570   8.709   0.720   8.700 -1.3922 -1.7666  0.0260
18798SOL     OW56571   2.051   2.617   0.764  0.4056 -0.0294 -0.0295
18798SOL    HW156572   1.978   2.651   0.704 -0.9348 -2.4612  0.1233
18798SOL    HW256573   2.089   2.694   0.817 -3.2236  1.1173  1.1737
18799SOL     OW56574   2.931   7.935   7.115 -0.2012  0.3743  0.3338
18799SOL    HW156575   2.859   7.954   7.181  1.0310 -0.9887  2.1695
18799SOL    HW256576   3.019   7.927   7.162  0.6944 -0.9554 -1.4173
18800SOL     OW56577   1.278   3.384   5.182  0.4231  0.1472 -0.2221
18800SOL    HW156578   1.361   3.406   5.131  0.4888 -2.0180 -1.1470
18800SOL    HW256579   1.209   3.454   5.165  0.9260  0.2262 -2.1692
18801SOL     OW56580   5.176   7.925   8.441 -0.3621  0.3971 -0.0381
18801SOL    HW156581   5.273   7.940   8.422 -0.4094 -0.0608 -0.6644
18801SOL    HW256582   5.121   7.974   8.373 -0.5177 -3.6619 -3.2132
18802SOL     OW56583   3.599   0.997   4.618  0.3726 -0.1809  0.0328
18802SOL    HW156584   3.655   0.928   4.665 -0.4382 -0.2072  0.9972
18802SOL    HW256585   3.645   1.086   4.622 -0.7889  0.4121  3.2377
18803SOL     OW56586   6.367   0.518   2.170 -0.5719 -0.0794  0.1235
18803SOL    HW156587   6.450   0.556   2.129 -0.3990 -1.8788 -1.3054
18803SOL    HW256588   6.341   0.574   2.249  0.6616  1.8722 -0.7739
18804SOL     OW56589   7.519   2.469   5.169 -0.1278  0.1220  0.1966
18804SOL    HW156590   7.572   2.455   5.253  1.3282 -2.5189 -1.0515
18804SOL    HW256591   7.435   2.519   5.191 -0.2942 -1.3099  3.4275
18805SOL     OW56592   6.442   6.722   5.166 -0.3782  0.1111  0.1759
18805SOL    HW156593   6.395   6.796   5.119 -0.4630  0.1671  0.3479
18805SOL    HW256594   6.377   6.650   5.190 -0.1149 -0.5370 -0.9771
18806SOL     OW56595   3.860   7.848   4.901  0.1962 -0.2203 -0.2371
18806SOL    HW156596   3.932   7.797   4.949 -0.2439 -0.7042 -0.0887
18806SOL    HW256597   3.852   7.814   4.807  0.0403 -0.2840 -0.2001
18807SOL     OW56598   8.425   2.954   7.904 -0.1513 -0.7255 -0.3273
18807SOL    HW156599   8.329   2.982   7.896 -0.0521 -0.4627 -0.6684
18807SOL    HW256600   8.454   2.960   7.999  0.8035  3.6767 -0.6359
18808SOL     OW56601   7.837   3.242   2.633 -0.2228  0.2856  0.0868
18808SOL    HW156602   7.900   3.185   2.579 -1.0775 -0.1359 -0.4893
18808SOL    HW256603   7.868   3.337   2.631  0.2827  0.1171 -0.3508
18809SOL     OW56604   8.430   3.917   7.677 -0.3170  0.0346 -0.2003
18809SOL    HW156605   8.333   3.895   7.682 -0.5792  1.1199 -0.1721
18809SOL    HW256606   8.457   3.927   7.581  0.0976 -1.5793 -0.2766
18810SOL     OW56607   6.238   8.645   3.355  0.0839  0.1383  0.2930
18810SOL    HW156608   6.206   8.693   3.436 -0.1341  0.1628  0.1945
18810SOL    HW256609   6.214   8.698   3.273 -4.2354 -2.0949 -0.2388
18811SOL     OW56610   7.775   5.775   3.896 -0.9800 -0.0202 -0.0832
18811SOL    HW156611   7.853   5.797   3.955 -0.3672 -0.1226 -0.8350
18811SOL    HW256612   7.698   5.745   3.952  0.0597 -1.5530  0.5803
18812SOL     OW56613   5.868   6.677   4.732 -0.2951  0.3702  0.6000
18812SOL    HW156614   5.781   6.652   4.689 -0.4020  3.1515 -1.0697
18812SOL    HW256615   5.871   6.640   4.825 -2.3409 -1.4995  0.0115
18813SOL     OW56616   4.499   0.115   8.637 -0.2113  0.5557  0.1559
18813SOL    HW156617   4.564   0.177   8.680  2.8863 -2.0426 -0.3707
18813SOL    HW256618   4.476   0.041   8.700  0.5369 -0.6825 -0.9720
18814SOL     OW56619   4.230   7.714   3.973  0.3906 -0.1667 -0.2927
18814SOL    HW156620   4.242   7.664   3.887  0.2737 -0.9681  0.1483
18814SOL    HW256621   4.319   7.739   4.010  0.4264  1.7663 -1.5296
18815SOL     OW56622   8.291   0.660   5.142  0.3992  0.3299 -0.1274
18815SOL    HW156623   8.345   0.722   5.086 -0.9035  1.3622 -0.2788
18815SOL    HW256624   8.351   0.615   5.209  1.4362  1.4086 -0.2945
18816SOL     OW56625   3.087   8.366   4.309 -0.2644 -0.0154  0.2439
18816SOL    HW156626   3.068   8.460   4.339  3.3727  0.9640 -0.0549
18816SOL    HW256627   3.164   8.330   4.360  1.3635 -1.0712 -2.7152
18817SOL     OW56628   7.042   2.870   3.545 -0.2574 -0.4372 -0.4077
18817SOL    HW156629   7.007   2.793   3.598 -0.5204 -0.0512 -0.0129
18817SOL    HW256630   7.140   2.881   3.563 -0.1883 -0.7628 -0.5752
18818SOL     OW56631   3.603   7.383   7.420  0.6755 -0.3274  0.4279
18818SOL    HW156632   3.523   7.377   7.360  1.4984  0.4340 -0.7855
18818SOL    HW256633   3.600   7.307   7.486 -1.0795 -0.2588  0.4946
18819SOL     OW56634   3.202   6.049   2.165  0.4219  0.2822 -0.5287
18819SOL    HW156635   3.190   5.997   2.250 -2.5377 -0.8390 -1.4951
18819SOL    HW256636   3.276   6.007   2.111  1.4555  0.2227  0.8732
18820SOL     OW56637   7.656   3.489   3.045 -0.4899  0.3355 -0.0223
18820SOL    HW156638   7.753   3.502   3.065 -0.5039  1.3830 -0.5576
18820SOL    HW256639   7.621   3.412   3.098 -0.0100  1.5880  2.2971
18821SOL     OW56640   5.076   8.297   3.268 -0.0269  0.4077  0.4308
18821SOL    HW156641   5.073   8.220   3.204 -0.8625  0.9077 -0.1584
18821SOL    HW256642   5.170   8.332   3.273 -0.1559  1.2062 -1.5948
18822SOL     OW56643   4.254   8.398   3.615  0.2887  0.6026  0.5304
18822SOL    HW156644   4.336   8.449   3.586 -0.4386  1.2300 -0.4725
18822SOL    HW256645   4.202   8.371   3.535 -0.0884 -0.4997  1.1318
18823SOL     OW56646   6.087   0.631   3.303 -0.3803 -0.2279  0.6200
18823SOL    HW156647   6.048   0.625   3.395 -0.8175  1.5591  0.5919
18823SOL    HW256648   6.017   0.609   3.236  0.1306 -2.2724  0.6862
18824SOL     OW56649   2.796   3.426   3.888 -0.0587 -0.0519  0.1349
18824SOL    HW156650   2.802   3.517   3.931  1.4346 -0.1168  0.1283
18824SOL    HW256651   2.764   3.436   3.794  0.7222  0.5608 -0.0816
18825SOL     OW56652   2.750   7.261   1.872 -0.3167  0.1881 -0.2734
18825SOL    HW156653   2.791   7.282   1.961  1.7850  0.5014 -1.2496
18825SOL    HW256654   2.676   7.326   1.854  1.0420  1.9399  0.0875
18826SOL     OW56655   6.588   4.998   4.871  0.7483 -0.0206  0.1064
18826SOL    HW156656   6.615   5.083   4.916 -1.2653  1.0937 -0.6743
18826SOL    HW256657   6.608   5.004   4.773  3.1557 -1.6084  0.4077
18827SOL     OW56658   3.804   6.182   5.726 -0.1775 -0.2163  1.2176
18827SOL    HW156659   3.822   6.241   5.647 -0.9848 -1.3031  0.1834
18827SOL    HW256660   3.758   6.235   5.797 -0.8651  0.4375  0.3215
18828SOL     OW56661   6.582   1.187   5.095 -0.1110 -0.3100 -0.1616
18828SOL    HW156662   6.675   1.223   5.093 -0.2803  0.1964  0.8652
18828SOL    HW256663   6.581   1.100   5.144 -0.0270 -0.8127 -1.0214
18829SOL     OW56664   7.737   5.262   4.428  0.2815 -0.1351 -0.3670
18829SOL    HW156665   7.821   5.210   4.442 -1.4937 -2.6699  1.6287
18829SOL    HW256666   7.712   5.308   4.513 -0.6090  0.2080 -0.8057
18830SOL     OW56667   2.559   1.338   8.215  0.0575 -0.0022 -0.1536
18830SOL    HW156668   2.475   1.365   8.168 -0.1400 -0.3120  0.0119
18830SOL    HW256669   2.557   1.239   8.232 -0.2032  0.2048  1.1375
18831SOL     OW56670   1.418   6.909   3.093  0.8126 -0.7672  0.5986
18831SOL    HW156671   1.320   6.889   3.104  0.7755  0.2707  2.5290
18831SOL    HW256672   1.469   6.863   3.165  1.6239 -0.3859  0.2729
18832SOL     OW56673   7.382   7.719   2.341  0.3075  0.6829  0.1667
18832SOL    HW156674   7.344   7.786   2.277 -1.1852 -0.4472 -0.1849
18832SOL    HW256675   7.328   7.720   2.426  0.3770  0.0399  0.2191
18833SOL     OW56676   5.125   6.315   6.610 -0.3235 -0.0121 -0.7925
18833SOL    HW156677   5.135   6.377   6.532 -0.3975  0.5867 -0.3326
18833SOL    HW256678   5.178   6.350   6.687 -1.9281  0.5716  0.1086
18834SOL     OW56679   3.680   7.824   0.103 -0.7850  0.2485  0.5537
18834SOL    HW156680   3.736   7.905   0.120 -0.2089 -0.6591  3.6956
18834SOL    HW256681   3.640   7.793   0.190  0.3076 -3.7541 -0.1931
18835SOL     OW56682   2.826   8.692   8.044  0.5382 -0.2169  0.1938
18835SOL    HW156683   2.814   8.722   7.949 -0.7873 -0.8225  0.1380
18835SOL    HW256684   2.917   8.717   8.076  0.8166  0.4691 -1.0643
18836SOL     OW56685   7.280   4.052   5.876 -0.2350  0.2365 -0.3108
18836SOL    HW156686   7.354   3.991   5.849 -0.5938  0.3911 -1.7195
18836SOL    HW256687   7.315   4.122   5.938  1.2856  1.5064 -2.4571
18837SOL     OW56688   5.810   4.954   2.446  0.0802 -0.2670 -0.4621
18837SOL    HW156689   5.843   4.860   2.455 -1.7296 -0.9506 -0.5897
18837SOL    HW256690   5.718   4.954   2.406  0.4890  1.6305 -1.5346
18838SOL     OW56691   5.838   5.768   7.393 -0.3413  0.1345  0.0546
18838SOL    HW156692   5.858   5.704   7.467 -2.1253  0.5392  0.9461
18838SOL    HW256693   5.774   5.838   7.426  1.9513  2.7627 -0.6972
18839SOL     OW56694   7.595   5.754   3.515  0.2050  0.2001  0.1244
18839SOL    HW156695   7.591   5.661   3.477  0.8365 -0.3107  1.2479
18839SOL    HW256696   7.502   5.791   3.522 -0.0845 -0.4805 -0.0354
18840SOL     OW56697   0.702   1.952   8.740  0.1304  0.2174  0.5134
18840SOL    HW156698   0.608   1.925   8.719  0.8718 -2.1543 -0.0875
18840SOL    HW256699   0.702   2.018   8.815 -2.0245  0.9131 -0.0205
18841SOL     OW56700   1.525   8.099   4.914  0.2861 -0.5965 -0.0843
18841SOL    HW156701   1.614   8.066   4.948  0.3670  0.6841  1.0370
18841SOL    HW256702   1.540   8.179   4.856 -0.1674 -0.0784  0.5122
18842SOL     OW56703   8.671   8.264   0.576 -0.4077 -0.1257 -0.5824
18842SOL    HW156704   8.698   8.172   0.546  1.9370  0.8051 -1.5662
18842SOL    HW256705   8.653   8.263   0.674  1.9518 -1.2233 -0.0761
18843SOL     OW56706   2.567   6.700   5.190 -0.1301 -0.0546 -0.1814
18843SOL    HW156707   2.654   6.670   5.150  0.7384  1.0970  0.7588
18843SOL    HW256708   2.557   6.658   5.280 -0.9784 -0.8507 -0.6340
18844SOL     OW56709   8.481   7.328   5.906  0.0147 -0.1682  0.0275
18844SOL    HW156710   8.524   7.352   5.819 -0.2619  1.3585  0.2753
18844SOL    HW256711   8.521   7.382   5.980  0.4892 -1.6933  0.9450
18845SOL     OW56712   2.564   8.430   6.775  0.0317 -0.1779 -0.3927
18845SOL    HW156713   2.631   8.355   6.779  0.0027 -0.2327 -0.8951
18845SOL    HW256714   2.557   8.464   6.681 -1.7391 -1.1764 -0.6770
18846SOL     OW56715   3.543   6.315   8.212  0.3224  0.4144 -1.0696
18846SOL    HW156716   3.483   6.236   8.229  1.4251 -0.1838  0.2696
18846SOL    HW256717   3.576   6.312   8.118  0.8818 -1.1307 -0.8516
18847SOL     OW56718   1.186   6.649   7.328 -0.0653 -0.0898 -0.7048
18847SOL    HW156719   1.232   6.732   7.361 -0.9672  0.4175 -0.7022
18847SOL    HW256720   1.243   6.606   7.258  1.2426 -0.4489  0.5144
18848SOL     OW56721   0.913   1.650   5.324 -0.0680 -0.0126  0.2421
18848SOL    HW156722   0.906   1.643   5.224 -0.3965 -0.0933  0.2707
18848SOL    HW256723   0.858   1.726   5.356 -1.0126 -0.7799  0.4848
18849SOL     OW56724   4.895   1.677   7.165  0.3836  0.1752 -0.5575
18849SOL    HW156725   4.895   1.777   7.169 -0.0865  0.1656  2.9155
18849SOL    HW256726   4.983   1.642   7.197  1.3012 -0.6426 -3.6029
18850SOL     OW56727   6.969   7.803   3.279 -0.5539 -0.9515 -0.3768
18850SOL    HW156728   6.939   7.884   3.330  0.5799 -2.0474  2.2364
18850SOL    HW256729   7.063   7.817   3.246  0.0625 -1.5051  1.0230
18851SOL     OW56730   4.184   4.697   0.538  0.1179 -0.0901  0.0639
18851SOL    HW156731   4.201   4.599   0.547  0.4693  0.1004  1.7199
18851SOL    HW256732   4.100   4.721   0.585  1.3632  0.7718  1.9589
18852SOL     OW56733   7.559   7.793   4.497  0.2606  0.8902  0.5214
18852SOL    HW156734   7.558   7.859   4.421 -1.1676 -1.7357 -1.9175
18852SOL    HW256735   7.467   7.759   4.513  0.9593 -0.5399  1.7182
18853SOL     OW56736   1.921   0.736   3.100 -0.6661  0.1167 -0.9189
18853SOL    HW156737   1.911   0.719   3.002  1.8287  1.3617 -1.4770
18853SOL    HW256738   1.886   0.827   3.122  0.2285  0.5014 -1.0138
18854SOL     OW56739   0.796   5.538   0.687 -0.3329 -0.1476  0.1323
18854SOL    HW156740   0.707   5.496   0.672 -0.1128  0.0476 -1.9447
18854SOL    HW256741   0.805   5.620   0.632  1.5468 -0.7885 -0.6009
18855SOL     OW56742   0.288   1.733   6.401  0.6352 -0.1799  0.4951
18855SOL    HW156743   0.248   1.654   6.447 -0.5634  0.8342  1.2346
18855SOL    HW256744   0.274   1.815   6.456  1.6191  0.6147 -0.3901
18856SOL     OW56745   6.826   0.787   7.739  0.2147 -0.0472  0.1430
18856SOL    HW156746   6.735   0.762   7.705  0.1612  0.5159 -0.1406
18856SOL    HW256747   6.862   0.713   7.795 -1.6901  0.8646  2.7848
18857SOL     OW56748   1.485   3.114   5.222  0.6233 -0.6650  0.0383
18857SOL    HW156749   1.415   3.076   5.162  1.3634 -0.5463 -0.9072
18857SOL    HW256750   1.540   3.180   5.172  1.3932 -0.7263  0.7826
18858SOL     OW56751   3.559   0.157   2.249  0.1611  0.4606  0.5617
18858SOL    HW156752   3.618   0.077   2.236 -3.7419 -3.2068  2.7853
18858SOL    HW256753   3.500   0.168   2.169 -0.7403 -0.3555  1.0872
18859SOL     OW56754   1.340   8.467   5.577  0.1148 -0.2016  0.1541
18859SOL    HW156755   1.306   8.561   5.579  0.2318 -0.1595  1.8547
18859SOL    HW256756   1.433   8.466   5.540 -0.7705 -0.0125 -2.2465
18860SOL     OW56757   1.048   2.684   4.765  0.4219 -0.4541 -0.0889
18860SOL    HW156758   1.124   2.734   4.725  0.2548 -0.2268 -0.1240
18860SOL    HW256759   1.015   2.732   4.846 -0.8927  0.4571 -1.1194
18861SOL     OW56760   2.753   3.540   0.301  0.5787 -0.4932 -0.3739
18861SOL    HW156761   2.690   3.470   0.335 -0.5245  0.6949  0.1382
18861SOL    HW256762   2.823   3.497   0.245  0.4403 -2.0925  0.6170
18862SOL     OW56763   3.666   3.968   3.416  0.2721 -0.8535  0.1504
18862SOL    HW156764   3.600   4.042   3.404 -0.3610 -1.5180 -0.5331
18862SOL    HW256765   3.704   3.943   3.327  2.0352  0.0178  0.5945
18863SOL     OW56766   0.607   2.084   5.937 -0.4476  0.2691  0.2857
18863SOL    HW156767   0.654   2.053   6.019  0.4783  0.1997 -0.2557
18863SOL    HW256768   0.598   2.184   5.939  0.0206  0.3154  0.2513
18864SOL     OW56769   4.740   4.497   5.489 -0.2738 -0.8393  0.3716
18864SOL    HW156770   4.690   4.565   5.542  0.9453 -0.2300  0.7829
18864SOL    HW256771   4.696   4.486   5.400 -0.5157  0.4791  0.3021
18865SOL     OW56772   1.974   7.339   4.573  0.1077  0.0400  0.2175
18865SOL    HW156773   1.945   7.244   4.580  0.6171 -0.0898  0.6492
18865SOL    HW256774   1.937   7.392   4.650 -3.2310  1.0559 -1.8506
18866SOL     OW56775   0.626   2.939   4.214 -0.0312  0.3019  0.6374
18866SOL    HW156776   0.573   3.024   4.213  0.8404  0.8737 -1.3284
18866SOL    HW256777   0.573   2.866   4.171 -0.5432 -0.0320  1.7910
18867SOL     OW56778   7.096   2.742   4.547 -0.1036 -0.5065 -0.4057
18867SOL    HW156779   7.129   2.698   4.463 -0.3983 -1.4437 -0.0499
18867SOL    HW256780   7.174   2.762   4.606 -0.0493 -1.6227 -0.0794
18868SOL     OW56781   6.745   5.326   0.581 -0.0599 -0.1438 -0.7909
18868SOL    HW156782   6.807   5.353   0.655 -0.3968  0.2357 -0.6425
18868SOL    HW256783   6.752   5.228   0.565  1.0273 -0.0215 -1.1866
18869SOL     OW56784   1.145   1.009   7.909  0.1984  0.1847 -0.0911
18869SOL    HW156785   1.149   1.109   7.913 -0.2959  0.1677  2.6406
18869SOL    HW256786   1.223   0.974   7.856  0.1406  1.9940 -1.4445
18870SOL     OW56787   4.407   5.589   2.671  0.2058  0.4195 -0.1367
18870SOL    HW156788   4.477   5.645   2.626  0.4798 -0.9631 -1.5265
18870SOL    HW256789   4.422   5.590   2.770  3.4041 -1.3378 -0.4662
18871SOL     OW56790   5.125   1.635   5.460  0.2040  0.6469  0.5351
18871SOL    HW156791   5.073   1.711   5.420 -0.4324  0.0362  0.1799
18871SOL    HW256792   5.136   1.650   5.558  0.3478  1.3492  0.4169
18872SOL     OW56793   0.236   8.816   6.880  0.2643  0.4396  0.1196
18872SOL    HW156794   0.222   8.718   6.888  0.3431 -0.3376 -5.4506
18872SOL    HW256795   0.331   8.839   6.902  0.1610 -0.5921  1.7731
18873SOL     OW56796   2.598   8.551   7.793 -0.1903 -0.2531 -0.2567
18873SOL    HW156797   2.531   8.508   7.853 -0.8909 -0.4363 -1.1395
18873SOL    HW256798   2.551   8.592   7.714  0.7553 -0.7165 -1.0951
18874SOL     OW56799   0.420   6.796   1.386 -0.3013  0.2836 -0.1743
18874SOL    HW156800   0.452   6.809   1.480 -0.0139 -0.5192 -0.1582
18874SOL    HW256801   0.358   6.871   1.362  0.1326  0.8484  0.4266
18875SOL     OW56802   2.500   8.297   4.952  0.0321 -1.0161 -0.1087
18875SOL    HW156803   2.598   8.308   4.967 -0.0017  1.5695 -1.1508
18875SOL    HW256804   2.484   8.217   4.895  1.6573 -0.7921 -0.9459
18876SOL     OW56805   4.162   1.250   6.708 -0.1235 -0.0917 -0.4051
18876SOL    HW156806   4.103   1.318   6.664 -2.3040 -0.3538  1.8719
18876SOL    HW256807   4.150   1.162   6.663 -1.3593 -0.0900 -0.1241
18877SOL     OW56808   6.329   7.125   7.992  0.4435 -0.0954 -0.2342
18877SOL    HW156809   6.398   7.152   8.059  1.7023  0.8175 -1.8169
18877SOL    HW256810   6.248   7.089   8.039  0.4324  2.4000  1.8516
18878SOL     OW56811   7.877   7.400   4.967  0.1079  0.8445  0.1245
18878SOL    HW156812   7.807   7.447   5.020 -1.7555 -0.6482 -0.8887
18878SOL    HW256813   7.886   7.444   4.878  1.1767  1.5968  0.5798
18879SOL     OW56814   6.226   6.569   1.466 -0.3053 -0.3187  0.0603
18879SOL    HW156815   6.326   6.564   1.457 -0.2183  0.7616  0.2901
18879SOL    HW256816   6.190   6.630   1.396 -0.7364 -0.2298  0.3562
18880SOL     OW56817   6.234   5.831   4.359  0.0125 -0.5475  0.3282
18880SOL    HW156818   6.135   5.816   4.355 -0.4039  1.9032 -1.1360
18880SOL    HW256819   6.282   5.746   4.340 -1.7261 -2.1824  2.6910
18881SOL     OW56820   5.494   8.359   3.622  0.4305  0.4488 -0.0734
18881SOL    HW156821   5.525   8.400   3.536  0.9783 -2.0583 -1.1711
18881SOL    HW256822   5.394   8.357   3.623  0.4173 -0.3519 -1.1266
18882SOL     OW56823   8.843   4.368   3.261  0.4999  0.2205  0.4995
18882SOL    HW156824   8.862   4.288   3.319 -1.4094  0.8208  2.0432
18882SOL    HW256825   8.745   4.373   3.242  0.7827  1.4174 -0.8042
18883SOL     OW56826   4.877   1.856   6.302 -0.0688 -0.6804  0.3442
18883SOL    HW156827   4.928   1.939   6.325  1.8451 -1.5964 -0.3161
18883SOL    HW256828   4.879   1.793   6.379  0.5824 -1.0625  0.0274
18884SOL     OW56829   3.726   1.510   3.708  0.6882 -0.2757  0.3239
18884SOL    HW156830   3.728   1.417   3.672  1.2681 -0.7420  1.4878
18884SOL    HW256831   3.778   1.513   3.794  0.8495  1.1668  0.2002
18885SOL     OW56832   5.498   5.974   5.607 -0.1875  0.7697 -0.3386
18885SOL    HW156833   5.529   5.971   5.512 -0.9155 -3.0974 -0.6056
18885SOL    HW256834   5.446   6.058   5.622  1.7181  2.5065 -2.6962
18886SOL     OW56835   0.132   2.287   8.226 -0.4468  0.0279 -0.0054
18886SOL    HW156836   0.171   2.347   8.296  0.7943 -0.6629 -0.0707
18886SOL    HW256837   0.206   2.248   8.171 -1.2494 -1.1730 -0.2748
18887SOL     OW56838   4.850   2.016   2.887  0.5514 -0.1556 -0.1803
18887SOL    HW156839   4.792   2.053   2.814 -0.6478 -0.8118  0.4177
18887SOL    HW256840   4.792   1.975   2.958  1.5960  1.8081  1.9108
18888SOL     OW56841   5.056   1.947   8.217  0.3495  0.0316 -0.2663
18888SOL    HW156842   4.987   1.934   8.146  2.4549  0.4432 -2.5322
18888SOL    HW256843   5.022   1.912   8.304 -1.7385 -2.0159 -1.8058
18889SOL     OW56844   0.131   8.670   0.194  0.1252 -0.2525 -0.4673
18889SOL    HW156845   0.198   8.701   0.261 -2.0451  1.1556  1.1740
18889SOL    HW256846   0.113   8.572   0.208  0.7167 -0.2972  0.0332
18890SOL     OW56847   0.497   6.442   8.471  0.3956 -0.6072  0.0752
18890SOL    HW156848   0.408   6.445   8.425  0.1995 -0.0689  0.4763
18890SOL    HW256849   0.548   6.361   8.440 -0.6426 -1.4800  0.5974
18891SOL     OW56850   1.336   5.631   5.630 -0.0904  0.1401  0.7855
18891SOL    HW156851   1.338   5.619   5.531  0.7073 -0.1158  0.8244
18891SOL    HW256852   1.408   5.575   5.672 -1.1299 -0.6343  1.6011
18892SOL     OW56853   4.356   1.579   0.217  0.0167  0.0322  0.1905
18892SOL    HW156854   4.410   1.610   0.294 -0.5497 -0.9359  0.9982
18892SOL    HW256855   4.273   1.533   0.250 -0.8812  0.7251 -0.9962
18893SOL     OW56856   2.739   2.988   7.383 -0.2195  0.2713 -0.2431
18893SOL    HW156857   2.700   3.076   7.356  0.2310  0.8547  0.9193
18893SOL    HW256858   2.820   3.004   7.441 -1.5687 -0.8492  2.0974
18894SOL     OW56859   6.778   4.124   2.018 -0.5451 -0.0603 -0.3567
18894SOL    HW156860   6.787   4.059   2.094  1.5163  0.6094  0.0434
18894SOL    HW256861   6.697   4.101   1.964 -1.6223 -1.0463  1.5521
18895SOL     OW56862   0.437   4.735   8.578  0.6011  0.2122 -0.1898
18895SOL    HW156863   0.524   4.783   8.592  0.9374 -0.7228  1.0630
18895SOL    HW256864   0.450   4.637   8.593 -0.2908 -0.1838 -1.7608
18896SOL     OW56865   8.487   0.392   0.041 -0.0694  0.2058  0.2003
18896SOL    HW156866   8.393   0.358   0.043 -0.2500  0.7012  0.4189
18896SOL    HW256867   8.499   0.452  -0.039  0.2146 -0.2783 -0.1253
18897SOL     OW56868   6.031   6.157   4.327  0.4516 -0.3050 -0.1646
18897SOL    HW156869   5.948   6.209   4.348  0.8521 -0.2679  1.4261
18897SOL    HW256870   6.082   6.140   4.411  1.4796 -1.3305 -0.9640
18898SOL     OW56871   8.225   7.128   7.308 -0.3976  0.2332  0.0678
18898SOL    HW156872   8.306   7.070   7.297  0.2773  0.4674  2.9739
18898SOL    HW256873   8.253   7.218   7.342 -1.6855  1.3309 -1.6248
18899SOL     OW56874   2.175   8.035   0.852  0.1226  0.4513 -0.2127
18899SOL    HW156875   2.262   8.033   0.803  0.2838 -0.3723  0.0964
18899SOL    HW256876   2.100   8.027   0.787  0.3011  0.4249 -0.4146
18900SOL     OW56877   3.039   4.162   2.321 -0.7553 -0.0236 -0.1402
18900SOL    HW156878   2.987   4.243   2.346 -0.0230  0.5537 -0.4540
18900SOL    HW256879   3.074   4.172   2.228  2.3836  0.9491  1.0037
18901SOL     OW56880   3.042   4.883   3.215  0.3570  0.1323  0.5770
18901SOL    HW156881   2.943   4.891   3.229  0.3169  0.9350 -0.1040
18901SOL    HW256882   3.060   4.820   3.140  0.4915 -2.2346  2.4572
18902SOL     OW56883   4.187   3.918   1.946 -0.4501 -0.4405 -0.1809
18902SOL    HW156884   4.159   3.963   2.031 -2.3530 -0.0615 -0.9410
18902SOL    HW256885   4.286   3.913   1.941 -0.2493  1.3087  1.1569
18903SOL     OW56886   2.425   1.107   0.420  0.0103  0.3741 -0.0460
18903SOL    HW156887   2.388   1.193   0.387  1.9080  0.1482 -3.1703
18903SOL    HW256888   2.353   1.037   0.420 -0.7938  1.1871 -0.5902
18904SOL     OW56889   1.140   1.144   1.901  0.4648  0.0126 -0.1934
18904SOL    HW156890   1.105   1.090   1.825  2.8418 -0.4604 -1.0550
18904SOL    HW256891   1.087   1.228   1.910 -0.9772 -0.7575 -1.2065
18905SOL     OW56892   5.558   1.859   5.825  0.1923  0.3384  0.0097
18905SOL    HW156893   5.482   1.855   5.761 -0.7175  2.3507  0.8508
18905SOL    HW256894   5.640   1.889   5.778  0.0105 -0.0600 -0.5628
18906SOL     OW56895   4.185   4.799   4.844  0.5872  0.6503  0.0920
18906SOL    HW156896   4.123   4.877   4.844 -0.7404 -0.3483  1.2181
18906SOL    HW256897   4.259   4.814   4.909  1.2734  1.6260 -0.8790
18907SOL     OW56898   0.434   5.065   3.640  0.0451  0.4563  0.2270
18907SOL    HW156899   0.367   5.116   3.586  0.2360 -0.9949 -1.4772
18907SOL    HW256900   0.526   5.092   3.611  0.1482 -0.5206 -0.3858
18908SOL     OW56901   5.337   1.135   1.303 -0.3217 -0.6195  0.4650
18908SOL    HW156902   5.392   1.151   1.222  0.3553  0.9216  1.1843
18908SOL    HW256903   5.250   1.183   1.294 -0.2598 -0.4754  0.6371
18909SOL     OW56904   7.389   6.752   1.928 -0.5359 -0.6021  0.4395
18909SOL    HW156905   7.483   6.769   1.960  0.7613 -1.7360 -2.3970
18909SOL    HW256906   7.327   6.820   1.968  1.4269  0.0998  2.5259
18910SOL     OW56907   0.245   7.366   1.507  0.0231  0.1845 -0.3225
18910SOL    HW156908   0.153   7.372   1.544 -0.3925 -1.5266 -1.0232
18910SOL    HW256909   0.285   7.277   1.529  0.8144  0.1988 -1.6196
18911SOL     OW56910   3.173   8.735   7.439  0.2528  0.9379  0.7319
18911SOL    HW156911   3.133   8.646   7.463 -0.7401  1.0008 -0.5937
18911SOL    HW256912   3.239   8.722   7.364  0.4955  1.2494  0.8927
18912SOL     OW56913   2.713   5.852   7.367  0.1795  0.2332 -0.2809
18912SOL    HW156914   2.802   5.877   7.329  1.1420  0.1552  1.8142
18912SOL    HW256915   2.694   5.756   7.347  0.0909  0.4947 -1.5555
18913SOL     OW56916   8.336   3.784   5.107 -0.4005 -0.0691  0.1888
18913SOL    HW156917   8.270   3.811   5.038 -1.4992 -1.3338  0.7057
18913SOL    HW256918   8.375   3.695   5.084 -2.1979 -1.4501  2.0608
18914SOL     OW56919   1.470   6.452   0.882 -0.0744 -0.8543 -0.0410
18914SOL    HW156920   1.520   6.536   0.905 -0.6260 -0.0400 -1.6440
18914SOL    HW256921   1.394   6.475   0.821 -0.1751 -2.5413 -0.5896
18915SOL     OW56922   2.127   2.482   6.398  0.0497  0.3108 -0.2049
18915SOL    HW156923   2.045   2.536   6.416 -0.9541 -0.8601 -1.1306
18915SOL    HW256924   2.103   2.386   6.389  1.3971  0.0414 -1.2885
18916SOL     OW56925   3.806   4.623   1.286 -0.6006 -0.0688 -0.0110
18916SOL    HW156926   3.902   4.612   1.257 -0.4595  0.5618  0.2062
18916SOL    HW256927   3.790   4.567   1.367 -0.1755  0.4755  0.4612
18917SOL     OW56928   2.432   0.932   7.763 -0.4712  0.3891 -0.0863
18917SOL    HW156929   2.349   0.942   7.818 -0.3766 -1.2571  0.4166
18917SOL    HW256930   2.412   0.875   7.683  0.6079 -1.8976  1.1846
18918SOL     OW56931   6.137   4.391   8.108  0.5001  0.1882 -0.3344
18918SOL    HW156932   6.168   4.316   8.050 -3.0462 -1.5454 -0.2390
18918SOL    HW256933   6.208   4.462   8.112  2.3767 -1.2768 -3.7151
18919SOL     OW56934   6.521   5.376   7.332 -0.3646  0.1983  0.5762
18919SOL    HW156935   6.465   5.454   7.359  0.2717  0.4075  1.3191
18919SOL    HW256936   6.600   5.368   7.393 -0.5033 -1.1250  0.6126
18920SOL     OW56937   7.982   8.651   4.867 -0.2032  0.0721  0.3521
18920SOL    HW156938   7.993   8.711   4.787 -3.6708 -0.0279 -0.3547
18920SOL    HW256939   8.024   8.695   4.947 -0.9225  2.5967 -0.5398
18921SOL     OW56940   2.452   8.670   0.440 -0.3876 -0.2932 -0.4385
18921SOL    HW156941   2.539   8.622   0.453  0.1496  1.2668  2.3008
18921SOL    HW256942   2.459   8.729   0.360  1.1893  0.0176 -0.1096
18922SOL     OW56943   1.873   4.555   2.803  0.5939 -0.3105 -0.3442
18922SOL    HW156944   1.851   4.608   2.721  0.0179  0.1624  0.1087
18922SOL    HW256945   1.803   4.485   2.817  0.2993  0.0785  0.1434
18923SOL     OW56946   2.186   8.323   6.880 -0.0885 -0.1909 -0.6405
18923SOL    HW156947   2.268   8.358   6.924 -0.0931 -0.6523 -0.2569
18923SOL    HW256948   2.196   8.329   6.781  0.8597 -1.2479 -0.6214
18924SOL     OW56949   3.464   1.823   5.294  0.1710  0.1582  0.4060
18924SOL    HW156950   3.527   1.759   5.251  0.4552  0.2474  0.6880
18924SOL    HW256951   3.463   1.809   5.393 -1.0394 -0.5384  0.3103
18925SOL     OW56952   2.644   1.395   8.703 -0.5208 -0.6136 -0.0858
18925SOL    HW156953   2.652   1.295   8.703 -0.3069 -0.6654 -2.5051
18925SOL    HW256954   2.615   1.425   8.612 -1.1598  1.5067  0.7816
18926SOL     OW56955   0.441   0.599   4.773  0.1814  0.0157 -0.0806
18926SOL    HW156956   0.541   0.597   4.780  0.1927 -0.9264 -0.3715
18926SOL    HW256957   0.409   0.694   4.778  1.2879  0.6043 -2.5317
18927SOL     OW56958   7.335   5.155   4.090 -0.2420 -0.0971  0.3837
18927SOL    HW156959   7.269   5.097   4.042 -0.5468 -0.0571  0.7512
18927SOL    HW256960   7.425   5.145   4.047 -0.6318  0.4024 -0.5834
18928SOL     OW56961   7.382   2.167   8.685 -0.0560  0.8194 -0.2658
18928SOL    HW156962   7.449   2.098   8.656 -0.9444 -0.9723  1.6971
18928SOL    HW256963   7.293   2.145   8.646 -0.5802  0.1543  1.2160
18929SOL     OW56964   7.494   6.684   7.614  0.2977 -0.2216  0.3991
18929SOL    HW156965   7.475   6.708   7.709 -1.5265  0.6035 -0.1404
18929SOL    HW256966   7.547   6.757   7.571  1.9828 -1.0371  1.0113
18930SOL     OW56967   6.662   2.629   0.440 -0.2728  0.0190  0.6470
18930SOL    HW156968   6.629   2.634   0.346 -1.0659 -2.2289  0.7368
18930SOL    HW256969   6.725   2.704   0.457  2.1892 -1.0773 -2.5996
18931SOL     OW56970   6.479   6.251   1.451  0.1204  0.2085 -0.1293
18931SOL    HW156971   6.519   6.339   1.427  2.5547 -0.3924  1.3749
18931SOL    HW256972   6.385   6.265   1.484 -0.0056  2.0350 -1.1461
18932SOL     OW56973   8.584   0.336   2.187 -0.0823  0.4155 -0.1397
18932SOL    HW156974   8.505   0.394   2.206 -0.9590 -0.6854 -0.2712
18932SOL    HW256975   8.578   0.301   2.093  0.6772  0.4948 -0.2239
18933SOL     OW56976   1.802   3.247   5.723  0.4169 -0.2265 -0.0283
18933SOL    HW156977   1.902   3.254   5.725  0.4471  0.0758 -1.4952
18933SOL    HW256978   1.775   3.151   5.716  0.5837 -0.3225  0.5547
18934SOL     OW56979   6.537   1.694   3.597 -0.6264  0.2422 -0.1490
18934SOL    HW156980   6.439   1.680   3.613 -0.4539 -0.1328  0.6170
18934SOL    HW256981   6.562   1.787   3.624 -0.7812  0.3551 -0.3929
18935SOL     OW56982   0.989   2.981   8.156 -0.1239  0.0704 -0.0082
18935SOL    HW156983   0.944   2.916   8.094  0.8720 -1.3079  0.6430
18935SOL    HW256984   0.932   3.062   8.167 -1.6837 -0.9287 -0.4469
18936SOL     OW56985   1.298   2.649   0.251 -0.2598  1.2239 -0.2890
18936SOL    HW156986   1.286   2.550   0.247  0.5515  1.0862  0.2470
18936SOL    HW256987   1.394   2.671   0.237 -0.4543  1.9458 -0.5174
18937SOL     OW56988   8.159   8.451   1.508 -0.2334  0.5690 -0.2179
18937SOL    HW156989   8.135   8.371   1.563 -0.2357  0.2834 -0.6286
18937SOL    HW256990   8.136   8.433   1.412 -1.3711  1.5183 -0.1515
18938SOL     OW56991   2.579   7.943   8.057  0.2869 -0.1888  0.2870
18938SOL    HW156992   2.675   7.960   8.034 -0.0115  0.9718 -0.1913
18938SOL    HW256993   2.535   7.895   7.982 -0.4891  2.9077 -1.4035
18939SOL     OW56994   0.634   0.525   5.755  0.4937  0.6375 -0.3403
18939SOL    HW156995   0.664   0.432   5.777  0.4419  0.2885 -1.6822
18939SOL    HW256996   0.606   0.572   5.839  2.7045  0.2401  0.6974
18940SOL     OW56997   4.584   7.269   5.238 -0.1255  0.0670 -0.1238
18940SOL    HW156998   4.570   7.347   5.300 -1.2614  0.5605 -0.9680
18940SOL    HW256999   4.545   7.187   5.279 -1.2697  0.4786 -0.3487
18941SOL     OW57000   2.348   7.167   8.510  0.5895  0.2970  0.4013
18941SOL    HW157001   2.392   7.245   8.464 -0.1271  0.8151  0.5735
18941SOL    HW257002   2.387   7.155   8.601  0.9906  0.1991  0.2143
18942SOL     OW57003   2.006   2.882   2.278 -0.4390 -0.1960 -0.4444
18942SOL    HW157004   1.979   2.787   2.265 -0.3322 -0.2586 -0.2139
18942SOL    HW257005   2.057   2.913   2.198  3.6173 -1.7623  1.2602
18943SOL     OW57006   1.287   2.792   6.936  0.1491  0.3882  0.1309
18943SOL    HW157007   1.318   2.714   6.881  1.5080  0.2080  1.1014
18943SOL    HW257008   1.208   2.764   6.991  0.4570 -0.2448  0.2667
18944SOL     OW57009   2.762   6.518   7.146  0.4203  0.1105  0.0975
18944SOL    HW157010   2.685   6.569   7.183  1.0511  1.1874 -0.0174
18944SOL    HW257011   2.731   6.461   7.070 -0.2306  0.7383 -0.1208
18945SOL     OW57012   3.221   3.582   2.630  0.0406  0.0912 -0.0966
18945SOL    HW157013   3.154   3.587   2.556 -0.6024  0.4100  0.4864
18945SOL    HW257014   3.183   3.526   2.704  1.1272 -1.1668 -0.4591
18946SOL     OW57015   0.269   7.035   6.163 -0.2447  0.7688 -0.2273
18946SOL    HW157016   0.196   7.018   6.229 -1.8180  0.2448 -2.0221
18946SOL    HW257017   0.230   7.045   6.072  1.9006  1.0498 -1.1745
18947SOL     OW57018   0.554   4.621   6.362  0.3073  0.0038  0.1932
18947SOL    HW157019   0.506   4.553   6.417  1.4548  1.1976  2.8966
18947SOL    HW257020   0.524   4.713   6.389  0.9823  0.6623 -1.1707
18948SOL     OW57021   6.289   0.879   6.309 -0.1682 -0.6354  0.2656
18948SOL    HW157022   6.230   0.948   6.268  1.1959  1.2268  1.3006
18948SOL    HW257023   6.246   0.842   6.391 -0.5104 -0.3582  0.2109
18949SOL     OW57024   5.744   3.150   2.690  0.1844 -0.1597 -0.0080
18949SOL    HW157025   5.788   3.204   2.618 -0.2892  1.9180  1.1722
18949SOL    HW257026   5.701   3.211   2.756  0.3556 -1.9810  1.9123
18950SOL     OW57027   8.812   3.261   3.843 -0.1093 -0.1674 -0.5838
18950SOL    HW157028   8.761   3.270   3.757  0.3673  1.3293 -0.7416
18950SOL    HW257029   8.776   3.327   3.910  0.9197  0.1885 -0.3588
18951SOL     OW57030   5.550   5.655   3.637 -0.0938 -0.3426  0.8216
18951SOL    HW157031   5.556   5.729   3.705 -0.4354 -0.0844  0.5766
18951SOL    HW257032   5.471   5.671   3.578 -0.2728 -1.0045  0.8779
18952SOL     OW57033   0.441   3.371   7.056 -0.3431 -0.0996 -0.2661
18952SOL    HW157034   0.352   3.384   7.011 -0.8108  0.4230  0.7833
18952SOL    HW257035   0.457   3.273   7.069 -1.2745 -0.1638  0.5137
18953SOL     OW57036   7.422   2.157   6.155  0.0126  0.0423 -0.3957
18953SOL    HW157037   7.363   2.079   6.135 -1.1688  1.0147 -0.8779
18953SOL    HW257038   7.367   2.241   6.152  1.4680  1.0047 -1.0434
18954SOL     OW57039   2.994   4.241   5.585  0.3160  0.3932 -0.7574
18954SOL    HW157040   3.039   4.242   5.496  0.5061  0.3429 -0.6623
18954SOL    HW257041   2.985   4.335   5.619  1.6330  0.3161 -0.1363
18955SOL     OW57042   7.149   1.394   7.404 -0.2708  0.3389  0.0667
18955SOL    HW157043   7.079   1.324   7.407  0.8277 -0.8338 -0.7650
18955SOL    HW257044   7.155   1.431   7.311  1.5830 -1.0559 -0.4185
18956SOL     OW57045   4.646   3.633   0.353 -0.2204 -0.3286  0.2999
18956SOL    HW157046   4.737   3.628   0.396  0.2851 -0.2074 -0.7246
18956SOL    HW257047   4.592   3.553   0.381 -0.0324 -0.0816  1.4113
18957SOL     OW57048   6.556   4.037   6.903  0.2275 -0.1082  0.1354
18957SOL    HW157049   6.598   4.058   6.991 -1.5769 -0.0159  1.0335
18957SOL    HW257050   6.527   3.942   6.901  2.1708 -0.7129 -1.2313
18958SOL     OW57051   2.123   4.837   1.892 -0.0893 -0.3099  0.3952
18958SOL    HW157052   2.161   4.791   1.812  0.6082  0.5069  0.2347
18958SOL    HW257053   2.140   4.936   1.884 -1.2231 -0.0613  0.8908
18959SOL     OW57054   8.851   5.340   1.855 -0.1320  0.0576  0.4904
18959SOL    HW157055   8.848   5.416   1.920  1.0011  0.4494  0.1158
18959SOL    HW257056   8.793   5.361   1.777  0.7452  0.9076  0.0355
18960SOL     OW57057   7.548   0.192   3.028 -0.0703  0.4770 -0.3260
18960SOL    HW157058   7.479   0.164   3.095  0.5268 -0.3073 -0.0252
18960SOL    HW257059   7.622   0.240   3.075 -0.7247  1.9581 -0.7417
18961SOL     OW57060   2.498   4.650   2.373 -0.0105  0.0255 -0.3653
18961SOL    HW157061   2.524   4.565   2.327 -0.7143 -1.6659  2.1577
18961SOL    HW257062   2.580   4.701   2.399  0.4587 -0.4106 -0.9765
18962SOL     OW57063   7.116   1.787   7.241  0.2263  0.2016 -0.2748
18962SOL    HW157064   7.099   1.775   7.339 -1.4968 -0.0468 -0.5848
18962SOL    HW257065   7.068   1.716   7.190  0.3737  0.8700 -1.3685
18963SOL     OW57066   3.050   6.901   8.475  0.3882  0.2238  0.1660
18963SOL    HW157067   2.996   6.926   8.396  0.0796  0.5260  0.4716
18963SOL    HW257068   3.011   6.819   8.518 -0.2035  0.7994  0.7484
18964SOL     OW57069   6.166   1.042   7.434 -0.5617  0.7085 -0.3713
18964SOL    HW157070   6.158   1.025   7.336  0.1754  0.7038 -0.4366
18964SOL    HW257071   6.262   1.035   7.461 -0.5851  2.0416  0.1080
18965SOL     OW57072   7.144   1.075   1.809  0.4817  0.1329  0.2902
18965SOL    HW157073   7.148   1.010   1.732 -1.2165  1.0041 -0.5808
18965SOL    HW257074   7.072   1.142   1.792  0.9355  1.1219  2.0748
18966SOL     OW57075   7.408   3.758   8.489 -0.5066 -0.3162 -0.9092
18966SOL    HW157076   7.474   3.794   8.423  0.4405  0.8224  0.5940
18966SOL    HW257077   7.317   3.791   8.466  0.0985  1.7698 -0.5451
18967SOL     OW57078   3.501   1.356   3.197 -0.4759  0.1352  0.1365
18967SOL    HW157079   3.404   1.359   3.174 -0.2248  4.3032 -1.1722
18967SOL    HW257080   3.514   1.387   3.291 -0.3804 -0.0850  0.1967
18968SOL     OW57081   8.714   6.335   8.515  0.0019 -0.9202 -0.5598
18968SOL    HW157082   8.635   6.389   8.489  0.6675  0.4249  0.1282
18968SOL    HW257083   8.692   6.281   8.597  0.5916  1.6483  1.4357
18969SOL     OW57084   8.410   3.917   1.404 -0.0304  0.0955 -0.2232
18969SOL    HW157085   8.489   3.856   1.410 -0.4732 -0.7243 -2.0707
18969SOL    HW257086   8.417   3.974   1.322 -1.0351  0.4551 -0.0825
18970SOL     OW57087   5.251   0.728   2.884  0.2764  0.0453 -0.2583
18970SOL    HW157088   5.272   0.676   2.966  1.3893  0.4015 -0.3076
18970SOL    HW257089   5.283   0.678   2.804  0.8142  0.5354 -0.3482
18971SOL     OW57090   3.806   3.824   5.358  0.1076  0.2804 -0.3635
18971SOL    HW157091   3.904   3.802   5.354  0.2391  0.6316  0.6393
18971SOL    HW257092   3.778   3.866   5.272  0.7192 -0.2827 -0.8544
18972SOL     OW57093   2.653   0.716   8.587  0.4796  0.6509 -0.2732
18972SOL    HW157094   2.638   0.641   8.651  3.0775  0.9950  0.8981
18972SOL    HW257095   2.571   0.771   8.579 -1.3455 -1.9581 -0.7735
18973SOL     OW57096   2.016   4.934   6.526 -0.0619  0.1034 -0.2568
18973SOL    HW157097   2.029   4.849   6.578  0.7001  1.0210  1.0879
18973SOL    HW257098   1.920   4.941   6.498 -0.4030 -0.6204  0.6652
18974SOL     OW57099   7.512   5.635   5.454  0.5031 -0.6457 -0.4275
18974SOL    HW157100   7.538   5.630   5.358 -1.0393  1.6192 -1.0446
18974SOL    HW257101   7.424   5.588   5.467  1.2058 -1.8427  0.1176
18975SOL     OW57102   5.927   2.157   6.776 -0.2379  0.6153  0.2170
18975SOL    HW157103   5.986   2.200   6.844  0.0624 -0.8014  0.8923
18975SOL    HW257104   5.983   2.109   6.709 -0.5702 -0.5011  0.7015
18976SOL     OW57105   7.295   8.546   3.700 -0.1682  0.0004 -0.4569
18976SOL    HW157106   7.196   8.551   3.687 -0.4005 -2.7405 -0.3024
18976SOL    HW257107   7.317   8.564   3.796 -1.0230 -3.1085  0.4350
18977SOL     OW57108   2.297   0.540   6.620  0.6903 -0.3145  0.0180
18977SOL    HW157109   2.247   0.460   6.586  0.9013 -0.4326 -0.0180
18977SOL    HW257110   2.277   0.619   6.562  1.5966 -0.6822 -0.8140
18978SOL     OW57111   6.591   1.328   1.285 -0.2908 -0.1723 -0.1786
18978SOL    HW157112   6.621   1.424   1.286 -1.4984  0.2217  0.7775
18978SOL    HW257113   6.659   1.272   1.334  0.6414  0.0935 -1.1161
18979SOL     OW57114   7.048   3.098   3.729 -0.2429  0.1382 -0.1840
18979SOL    HW157115   7.065   3.197   3.728 -0.8270  0.2483  0.4571
18979SOL    HW257116   7.029   3.067   3.636  1.3453  0.3680 -0.6170
18980SOL     OW57117   2.427   8.549   2.826 -0.2035 -0.1452  0.4249
18980SOL    HW157118   2.400   8.467   2.776 -1.3862  0.0310  0.7426
18980SOL    HW257119   2.495   8.599   2.774 -0.4740 -0.6214 -0.4029
18981SOL     OW57120   4.034   0.108   0.677  0.1138  0.0520  0.8711
18981SOL    HW157121   4.111   0.171   0.686 -0.7061  1.1492  0.4957
18981SOL    HW257122   3.970   0.143   0.608 -0.1958 -1.3913  0.3819
18982SOL     OW57123   1.273   7.029   5.915  0.0635 -0.3936  0.1515
18982SOL    HW157124   1.355   7.018   5.860  0.7259  1.5083  0.7067
18982SOL    HW257125   1.297   7.028   6.012 -0.4248  1.0358  0.3119
18983SOL     OW57126   1.598   7.906   7.596 -0.2068  0.2864  0.2460
18983SOL    HW157127   1.524   7.849   7.632 -0.3432  0.9599  1.0679
18983SOL    HW257128   1.685   7.873   7.632 -0.0937 -0.5588 -0.7898
18984SOL     OW57129   7.184   7.637   1.505  0.4837 -0.1702  0.6270
18984SOL    HW157130   7.086   7.651   1.494 -0.2378 -1.4762  3.9563
18984SOL    HW257131   7.213   7.558   1.450 -0.9756 -1.4426  1.5857
18985SOL     OW57132   0.805   8.255   4.115 -0.2207 -0.1289 -0.3327
18985SOL    HW157133   0.808   8.159   4.089 -1.6265 -0.7290  1.5213
18985SOL    HW257134   0.893   8.281   4.156 -0.0049 -0.7728 -0.3794
18986SOL     OW57135   5.672   5.762   7.696 -0.4090  0.1476 -0.0741
18986SOL    HW157136   5.742   5.692   7.687 -3.3407 -2.8226 -2.1899
18986SOL    HW257137   5.684   5.830   7.623  0.2664 -0.2614 -0.3564
18987SOL     OW57138   7.176   5.751   1.843  0.1082  0.0505  0.2617
18987SOL    HW157139   7.140   5.716   1.930  0.4522  0.1564  0.4463
18987SOL    HW257140   7.103   5.749   1.775 -0.7032  1.6755  1.0136
18988SOL     OW57141   1.405   0.189   5.181 -0.6515 -0.2191 -0.3319
18988SOL    HW157142   1.372   0.223   5.269 -1.7460 -2.4535  0.1862
18988SOL    HW257143   1.333   0.199   5.112 -0.7073 -0.7327 -0.3538
18989SOL     OW57144   5.882   1.512   6.846 -0.1040  0.0529 -0.3259
18989SOL    HW157145   5.791   1.503   6.807 -0.0869  0.7081 -0.5194
18989SOL    HW257146   5.919   1.602   6.826 -0.3562  0.6830  1.7406
18990SOL     OW57147   3.368   7.109   3.757  0.8721 -0.0636  0.6541
18990SOL    HW157148   3.319   7.044   3.816  2.7228 -0.1928  2.1207
18990SOL    HW257149   3.374   7.198   3.802 -1.2066  1.0664 -1.1340
18991SOL     OW57150   3.336   7.702   2.630 -0.1475 -0.3117  0.4966
18991SOL    HW157151   3.252   7.739   2.593  0.7409  0.2508 -1.0513
18991SOL    HW257152   3.399   7.777   2.653  0.4958 -0.7510  0.2194
18992SOL     OW57153   1.481   5.056   1.085  0.5587  0.1737 -0.5084
18992SOL    HW157154   1.467   5.046   1.183  0.2061 -1.6037 -0.7050
18992SOL    HW257155   1.405   5.107   1.045 -0.7844 -1.5429 -0.2380
18993SOL     OW57156   8.679   1.069   0.789 -0.0316 -0.4654  0.3564
18993SOL    HW157157   8.776   1.043   0.790 -0.0053 -0.3799  0.1002
18993SOL    HW257158   8.627   1.004   0.845  0.1770 -0.4920  0.5237
18994SOL     OW57159   8.397   8.523   5.309  0.4771 -0.1929  0.3168
18994SOL    HW157160   8.385   8.435   5.262  0.9472 -0.0795 -0.0160
18994SOL    HW257161   8.369   8.597   5.248  1.1047 -0.0442  0.2081
18995SOL     OW57162   1.132   7.094   0.003 -0.2374 -0.0701 -0.6088
18995SOL    HW157163   1.166   7.090  -0.091  0.9875 -0.3726 -0.1704
18995SOL    HW257164   1.117   7.001   0.037  0.6415 -0.0205 -0.0546
18996SOL     OW57165   4.857   2.960   8.432  0.8139  0.2507 -0.0837
18996SOL    HW157166   4.815   2.956   8.342  0.1769 -0.9357  0.2421
18996SOL    HW257167   4.866   2.867   8.469  3.3017  0.4808  0.0657
18997SOL     OW57168   7.645   0.429   1.184 -0.2171 -0.0909  0.0517
18997SOL    HW157169   7.556   0.475   1.181 -0.4740 -0.6093 -0.8197
18997SOL    HW257170   7.694   0.455   1.267 -1.6565 -0.6940  1.1186
18998SOL     OW57171   2.069   7.352   4.124 -0.1877 -0.5596  0.3749
18998SOL    HW157172   2.154   7.366   4.075 -0.6934  2.6501  0.1941
18998SOL    HW257173   2.079   7.382   4.219 -0.6371 -1.8333  0.8407
18999SOL     OW57174   3.093   0.007   3.197  0.7395  0.1859 -0.1555
18999SOL    HW157175   3.073   0.100   3.227 -0.8803 -0.3414  0.5263
18999SOL    HW257176   3.146  -0.040   3.268  1.1285  0.4230 -0.2836
19000SOL     OW57177   1.185   1.754   4.510  0.5313  0.4370  0.3080
19000SOL    HW157178   1.130   1.714   4.583  2.7155 -1.9513  0.7899
19000SOL    HW257179   1.182   1.854   4.517 -1.2526  0.3171  2.1229
19001SOL     OW57180   8.373   1.961   1.402  0.5338 -0.2447  0.0501
19001SOL    HW157181   8.387   1.917   1.491  1.1518  0.0658  0.1103
19001SOL    HW257182   8.457   2.009   1.375  0.3126 -0.2473 -0.6491
19002SOL     OW57183   2.375   8.478   5.147 -0.4654 -0.3209  0.2586
19002SOL    HW157184   2.294   8.515   5.102 -0.5480  0.4068  0.9889
19002SOL    HW257185   2.436   8.437   5.078 -0.0283  1.8233 -0.6864
19003SOL     OW57186   3.616   8.051   1.195 -0.1457  0.5198  0.1792
19003SOL    HW157187   3.559   8.057   1.114  0.9108 -1.0505 -0.7384
19003SOL    HW257188   3.705   8.092   1.176 -0.4701  1.7200  1.1455
19004SOL     OW57189   8.851   1.980   8.539 -0.1586 -0.3207  0.6214
19004SOL    HW157190   8.877   1.918   8.464  0.3937  0.7162 -0.0748
19004SOL    HW257191   8.882   1.941   8.626  2.4916  0.1007 -0.0184
19005SOL     OW57192   7.822   7.482   2.609  0.0164 -0.0360  0.1683
19005SOL    HW157193   7.765   7.402   2.628 -0.6805  0.9231  2.5097
19005SOL    HW257194   7.897   7.486   2.674 -0.3426  1.5560  0.5201
19006SOL     OW57195   3.288   4.790   6.425 -0.1496 -0.0999  0.0416
19006SOL    HW157196   3.337   4.727   6.485 -1.9689 -0.8642  0.7751
19006SOL    HW257197   3.195   4.758   6.411  0.1496  0.1018 -3.1749
19007SOL     OW57198   2.693   8.674   3.010  0.0575 -0.1172 -0.1402
19007SOL    HW157199   2.632   8.730   2.954  1.3276  0.9598 -0.4924
19007SOL    HW257200   2.742   8.609   2.951  0.7503  0.4234 -0.1732
19008SOL     OW57201   3.532   7.875   6.074 -0.3898  0.0256 -0.3292
19008SOL    HW157202   3.587   7.851   5.993  0.8253  0.1047  0.4406
19008SOL    HW257203   3.578   7.947   6.125 -0.7760 -0.5132  0.8174
19009SOL     OW57204   5.410   2.070   0.621  0.2871 -0.1339  0.2732
19009SOL    HW157205   5.441   2.165   0.629  0.0548  0.0879 -1.2265
19009SOL    HW257206   5.312   2.068   0.603  0.7426 -0.4791 -2.6759
19010SOL     OW57207   0.576   6.398   0.363 -0.4326 -0.1119 -0.3518
19010SOL    HW157208   0.516   6.428   0.289 -0.1897  0.4203 -0.3364
19010SOL    HW257209   0.664   6.368   0.324 -0.1502  0.5652 -0.2514
19011SOL     OW57210   5.286   2.967   6.058  0.1227  0.2468  0.0804
19011SOL    HW157211   5.377   2.950   6.093  0.4019  0.7265 -0.3979
19011SOL    HW257212   5.220   2.964   6.133  0.1568 -2.6047  0.1198
19012SOL     OW57213   1.766   4.321   0.603  0.1803 -0.3902  0.6633
19012SOL    HW157214   1.830   4.383   0.558  0.5643 -0.5038  1.0454
19012SOL    HW257215   1.816   4.251   0.653 -0.2377 -0.4779  0.9741
19013SOL     OW57216   1.656   2.733   5.841  0.6577  0.3836 -0.2014
19013SOL    HW157217   1.669   2.771   5.933  0.6368 -1.4972  0.6212
19013SOL    HW257218   1.569   2.766   5.804  0.0666  0.2351  0.9743
19014SOL     OW57219   6.395   4.615   2.173  0.2986  0.0702 -0.0932
19014SOL    HW157220   6.323   4.664   2.123  0.0300  0.7319  0.9242
19014SOL    HW257221   6.476   4.673   2.180  0.2715  0.0547  0.3896
19015SOL     OW57222   4.750   0.566   1.351  0.3299 -0.4218  0.3099
19015SOL    HW157223   4.809   0.564   1.271 -0.4254 -0.1850 -0.2637
19015SOL    HW257224   4.768   0.649   1.404  1.1579 -0.8055  0.6504
19016SOL     OW57225   3.962   6.825   1.586  0.0570  0.2422 -0.3132
19016SOL    HW157226   3.924   6.897   1.644 -0.5880 -0.9357  0.7804
19016SOL    HW257227   3.902   6.810   1.507 -0.9621 -0.5189  0.5747
19017SOL     OW57228   3.144   1.235   5.890  0.4444  0.0857  0.0012
19017SOL    HW157229   3.057   1.255   5.935  1.0284  0.1481  1.1321
19017SOL    HW257230   3.181   1.319   5.850  1.0230  0.5391  1.4154
19018SOL     OW57231   4.254   5.156   4.231  0.3439 -0.0835  0.0477
19018SOL    HW157232   4.339   5.208   4.238 -0.7389  1.6025  1.2820
19018SOL    HW257233   4.256   5.079   4.295  0.9203 -0.0500  0.0767
19019SOL     OW57234   6.822   3.974   7.456  0.2072  0.6803 -0.0773
19019SOL    HW157235   6.832   3.886   7.410 -1.9657  1.1358 -1.5342
19019SOL    HW257236   6.740   3.974   7.512  0.6481  1.5136  0.5993
19020SOL     OW57237   0.648   8.293   7.259  0.0282  0.0993 -0.1718
19020SOL    HW157238   0.600   8.233   7.323 -0.3027  0.2950 -0.2349
19020SOL    HW257239   0.728   8.245   7.223 -0.1964 -0.2812 -0.1733
19021SOL     OW57240   6.961   1.621   3.726  0.2167 -0.3474 -0.1685
19021SOL    HW157241   6.993   1.556   3.657  0.0823 -0.5182 -0.0730
19021SOL    HW257242   7.034   1.686   3.748  0.9810 -1.5681  1.0425
19022SOL     OW57243   2.302   0.086   8.213 -0.0657 -0.3527 -0.5911
19022SOL    HW157244   2.288   0.142   8.295 -1.3635 -1.1158 -0.2591
19022SOL    HW257245   2.400   0.078   8.194  0.1878  1.0109  0.0485
19023SOL     OW57246   8.615   2.676   1.800 -0.0150 -0.5038 -0.6364
19023SOL    HW157247   8.673   2.613   1.750 -0.2037 -1.2210  0.0355
19023SOL    HW257248   8.633   2.770   1.768  0.4295 -0.8592 -1.4730
19024SOL     OW57249   3.159   1.975   3.228  0.0269 -0.1832 -0.5615
19024SOL    HW157250   3.124   2.065   3.205  1.0440 -0.1775 -2.2551
19024SOL    HW257251   3.084   1.917   3.259 -0.7863  0.9545 -0.3457
19025SOL     OW57252   5.713   4.052   1.610 -0.2195 -0.1125  0.0691
19025SOL    HW157253   5.771   4.119   1.564  0.1953  0.2622  1.1035
19025SOL    HW257254   5.634   4.099   1.649 -0.6889 -0.4637 -0.4494
19026SOL     OW57255   4.206   8.666   7.807 -0.1229  0.1787  0.0221
19026SOL    HW157256   4.178   8.754   7.768 -0.9103 -0.3097 -0.5508
19026SOL    HW257257   4.169   8.658   7.900 -1.3793 -0.1787 -0.4872
19027SOL     OW57258   1.324   8.330   4.646  0.1251 -0.1145 -0.2829
19027SOL    HW157259   1.293   8.235   4.646 -1.0613  0.2557  0.3714
19027SOL    HW257260   1.289   8.377   4.727  1.1443  0.7502 -0.3203
19028SOL     OW57261   0.927   8.567   7.971  0.3615 -0.9091 -0.1937
19028SOL    HW157262   1.015   8.545   7.930 -0.9073 -2.7331 -2.1785
19028SOL    HW257263   0.931   8.658   8.012  2.8034 -0.4744 -1.2054
19029SOL     OW57264   4.667   5.390   0.488  0.2641  0.2320  0.5940
19029SOL    HW157265   4.611   5.334   0.427  0.0424  2.0634 -1.0099
19029SOL    HW257266   4.610   5.427   0.561  0.0573 -0.2916  0.7019
19030SOL     OW57267   5.575   5.464   6.330 -0.3518  0.0330  0.4928
19030SOL    HW157268   5.553   5.409   6.250 -0.8719  1.2060 -0.1959
19030SOL    HW257269   5.494   5.471   6.389 -0.3006  0.0802  0.5576
19031SOL     OW57270   3.752   7.567   7.116 -0.1039  0.2882 -0.1213
19031SOL    HW157271   3.749   7.664   7.140  0.6639  0.0993  0.7852
19031SOL    HW257272   3.792   7.557   7.025  0.0263  0.8122 -0.1255
19032SOL     OW57273   5.189   7.814   0.246 -0.3513  0.2230  0.1884
19032SOL    HW157274   5.091   7.825   0.230 -0.3771 -1.2718 -0.8671
19032SOL    HW257275   5.233   7.904   0.246 -1.6592  0.8936  0.4000
19033SOL     OW57276   7.091   5.330   8.715 -0.3444  0.3803  0.0228
19033SOL    HW157277   7.160   5.400   8.697 -1.1845  1.1470 -0.2443
19033SOL    HW257278   7.078   5.322   8.814  0.0180  0.3303  0.0697
19034SOL     OW57279   6.040   7.553   3.006 -0.1240 -0.2388  0.1333
19034SOL    HW157280   6.071   7.583   2.916  0.8082 -0.7526  0.2626
19034SOL    HW257281   6.068   7.458   3.021 -1.7413 -0.7217  0.3053
19035SOL     OW57282   4.409   4.809   5.653 -0.9202 -0.0377  0.6107
19035SOL    HW157283   4.405   4.858   5.740  0.0751 -0.6825  1.0370
19035SOL    HW257284   4.321   4.819   5.605 -1.8181 -0.4386  2.1015
19036SOL     OW57285   1.084   0.035   2.200  0.0454 -0.0775  0.3727
19036SOL    HW157286   1.176   0.015   2.232 -0.5609  0.4087  2.5970
19036SOL    HW257287   1.031  -0.050   2.197  0.2126 -0.1803  0.3183
19037SOL     OW57288   1.718   8.852   1.005 -0.4385 -0.0777 -0.2409
19037SOL    HW157289   1.708   8.828   0.908 -0.5952 -0.5044 -0.1205
19037SOL    HW257290   1.812   8.880   1.023 -0.4021 -0.0271 -0.5100
19038SOL     OW57291   0.744   7.261   3.050  0.3096 -0.2659 -0.2604
19038SOL    HW157292   0.670   7.274   2.984  1.3554 -0.2028 -1.4661
19038SOL    HW257293   0.747   7.165   3.078 -1.5009  0.1025  1.4219
19039SOL     OW57294   0.017   0.435   6.587 -0.1049  0.2943 -0.6618
19039SOL    HW157295   0.037   0.387   6.672 -2.6664  0.2320 -0.0061
19039SOL    HW257296   0.042   0.532   6.597  1.0195 -0.0112 -0.4098
19040SOL     OW57297   8.130   8.834   3.687 -0.1777 -0.0380 -0.4913
19040SOL    HW157298   8.048   8.845   3.743 -0.2576  0.3946 -0.6863
19040SOL    HW257299   8.126   8.746   3.639 -0.8483  0.2591 -1.0091
19041SOL     OW57300   8.742   8.322   4.631  0.0419 -0.2418 -0.2618
19041SOL    HW157301   8.797   8.350   4.552 -1.5193 -1.6401 -1.9565
19041SOL    HW257302   8.651   8.363   4.624  0.0807  0.1344  1.1932
19042SOL     OW57303   2.958   7.142   4.197 -0.4533 -0.1148 -0.2127
19042SOL    HW157304   2.970   7.204   4.120 -0.5711  0.1396 -0.0274
19042SOL    HW257305   2.865   7.105   4.196  0.0731 -1.4972 -1.2114
19043SOL     OW57306   2.003   0.708   8.283 -0.1641  0.1901 -0.0840
19043SOL    HW157307   2.039   0.632   8.229  0.1221  0.1349  0.1827
19043SOL    HW257308   2.074   0.743   8.343 -1.1599 -1.4825  2.2329
19044SOL     OW57309   4.211   4.070   7.717  0.1106 -0.0074 -0.1564
19044SOL    HW157310   4.144   4.029   7.655  0.5879 -0.0052 -0.6886
19044SOL    HW257311   4.163   4.112   7.794 -0.4966 -0.0559 -0.4936
19045SOL     OW57312   8.605   1.253   3.232  0.2165  0.3209 -0.3275
19045SOL    HW157313   8.539   1.180   3.215 -0.4119  0.9491 -0.6290
19045SOL    HW257314   8.560   1.330   3.277  0.6543  0.8925 -0.8286
19046SOL     OW57315   6.435   3.668   7.555 -0.3909 -0.5426  0.9600
19046SOL    HW157316   6.346   3.705   7.526 -0.2991 -0.0285  1.3318
19046SOL    HW257317   6.421   3.588   7.613 -0.6203 -0.2556  1.3030
19047SOL     OW57318   8.503   0.408   4.838 -0.0532 -0.0657 -0.1170
19047SOL    HW157319   8.535   0.356   4.759  0.4357  0.4825 -0.2932
19047SOL    HW257320   8.523   0.357   4.922  1.0418  0.1231 -0.2449
19048SOL     OW57321   8.560   6.620   3.257 -0.1181 -0.1518 -0.1690
19048SOL    HW157322   8.651   6.650   3.286 -0.3045  1.7895 -1.4294
19048SOL    HW257323   8.491   6.669   3.311 -0.4144  0.4428 -1.0644
19049SOL     OW57324   4.919   8.783   1.379  0.1050  0.0912  0.0021
19049SOL    HW157325   4.830   8.818   1.348  0.2349  0.2081 -0.2383
19049SOL    HW257326   4.905   8.727   1.461 -0.2161 -0.0637 -0.1534
19050SOL     OW57327   7.359   0.182   6.158 -0.1773  0.2796  0.5315
19050SOL    HW157328   7.382   0.209   6.064 -0.9770  0.5568  0.4014
19050SOL    HW257329   7.409   0.099   6.182 -0.4783 -0.1868 -0.3917
19051SOL     OW57330   7.526   0.111   2.647 -0.3847 -0.5043 -0.0476
19051SOL    HW157331   7.554   0.015   2.657  1.1416 -0.0769  0.0775
19051SOL    HW257332   7.589   0.169   2.698 -0.3648  0.6878 -1.3832
19052SOL     OW57333   1.196   2.875   4.094  0.1491 -0.0579 -0.0383
19052SOL    HW157334   1.158   2.924   4.016  0.9577 -1.7522 -1.5667
19052SOL    HW257335   1.134   2.884   4.172 -0.6458  1.7392 -0.8102
19053SOL     OW57336   0.149   5.304   6.995  0.1084 -0.5172  1.0197
19053SOL    HW157337   0.075   5.271   6.936 -0.3951 -2.9852  2.8887
19053SOL    HW257338   0.121   5.297   7.090  1.6237  1.5455  1.6742
19054SOL     OW57339   7.841   0.426   3.681 -0.5130  0.2760 -0.4041
19054SOL    HW157340   7.766   0.384   3.629 -0.2866 -0.4467 -0.1639
19054SOL    HW257341   7.921   0.437   3.623 -1.8056  4.4157 -1.7825
19055SOL     OW57342   0.528   5.322   7.940 -0.7447 -0.0737 -0.1662
19055SOL    HW157343   0.448   5.364   7.898 -1.5187  0.1833  1.4888
19055SOL    HW257344   0.502   5.234   7.979 -0.3619  0.2461  0.8390
19056SOL     OW57345   0.594   5.815   7.073  0.4015 -0.0939 -0.5431
19056SOL    HW157346   0.678   5.867   7.055  0.2224  0.2806 -0.3122
19056SOL    HW257347   0.600   5.771   7.162  1.4406 -2.2545 -1.5973
19057SOL     OW57348   1.273   2.114   6.331  0.2403  0.3985  0.3515
19057SOL    HW157349   1.362   2.149   6.301  2.1424 -3.1165  1.3430
19057SOL    HW257350   1.252   2.028   6.283 -1.7703  0.2101  1.4306
19058SOL     OW57351   7.965   3.004   2.046  0.2471  0.2477 -0.0716
19058SOL    HW157352   8.030   3.051   2.106 -0.2006  2.1614 -1.0142
19058SOL    HW257353   7.932   3.068   1.976 -0.6067 -1.4303 -1.2616
19059SOL     OW57354   6.992   3.543   6.847  0.1273  0.1968 -0.6277
19059SOL    HW157355   7.048   3.529   6.929  1.0982  0.3782 -1.2460
19059SOL    HW257356   7.023   3.626   6.801 -0.8461  0.4508 -0.8333
19060SOL     OW57357   1.257   7.682   1.254  0.0006  0.2469  0.1244
19060SOL    HW157358   1.215   7.651   1.340 -0.3988  1.3410  0.3397
19060SOL    HW257359   1.187   7.686   1.183  0.3656 -0.8319 -0.3270
19061SOL     OW57360   0.965   1.316   2.160  0.2270 -0.5398  0.0533
19061SOL    HW157361   0.905   1.274   2.091  0.8201  0.1000 -0.8811
19061SOL    HW257362   0.952   1.415   2.159  2.3987 -0.1902 -1.3173
19062SOL     OW57363   5.540   4.871   0.875 -0.0044 -0.8044 -0.1366
19062SOL    HW157364   5.486   4.940   0.924  1.7864  0.4551  0.1649
19062SOL    HW257365   5.524   4.880   0.777 -0.0518 -0.1873 -0.0753
19063SOL     OW57366   0.014   4.479   2.762 -0.1976 -0.4401  0.2515
19063SOL    HW157367   0.095   4.420   2.757 -0.1387 -0.3001 -0.5801
19063SOL    HW257368  -0.010   4.494   2.858  0.8073 -0.4236  0.5110
19064SOL     OW57369   1.476   4.208   8.566  0.1545 -0.3331  0.0703
19064SOL    HW157370   1.468   4.307   8.555  0.4804  0.1193  2.9462
19064SOL    HW257371   1.560   4.186   8.616 -0.8372 -1.8513  1.2002
19065SOL     OW57372   3.577   0.828   8.625 -0.3844  0.6338  0.4980
19065SOL    HW157373   3.506   0.877   8.675 -1.4677 -1.6338  1.2858
19065SOL    HW257374   3.535   0.755   8.571  1.3845 -1.3568  1.6916
19066SOL     OW57375   6.919   3.290   4.854 -0.2730 -0.3573  0.4680
19066SOL    HW157376   6.833   3.306   4.806  0.1553 -0.3918 -0.3216
19066SOL    HW257377   6.984   3.244   4.793  0.2287 -0.5455  1.1258
19067SOL     OW57378   4.478   3.938   5.020  0.2916  0.0848  0.2432
19067SOL    HW157379   4.383   3.969   5.013 -0.1337 -1.0725  0.6592
19067SOL    HW257380   4.520   3.978   5.100 -0.3208 -0.5635  0.9031
19068SOL     OW57381   8.086   4.763   0.608  0.2620  0.3044 -1.1968
19068SOL    HW157382   8.184   4.783   0.596  0.5189 -1.0591 -1.5469
19068SOL    HW257383   8.068   4.739   0.703  0.3912 -0.0517 -1.2609
19069SOL     OW57384   0.138   1.970   0.940  0.3038  0.4540 -0.2343
19069SOL    HW157385   0.103   1.957   1.033 -0.1823  1.2338 -0.2940
19069SOL    HW257386   0.186   2.058   0.936 -0.5135  0.8863 -0.9459
19070SOL     OW57387   7.985   4.740   7.688  0.0984  0.4032  0.5766
19070SOL    HW157388   8.080   4.732   7.718  0.5405  1.8666 -0.3060
19070SOL    HW257389   7.945   4.649   7.675  1.4374 -0.2265  0.7430
19071SOL     OW57390   2.329   4.797   7.287 -0.2576  0.2567  0.3461
19071SOL    HW157391   2.411   4.851   7.266  1.4667 -2.2792  0.0452
19071SOL    HW257392   2.297   4.820   7.379  0.4682  1.7001  0.2575
19072SOL     OW57393   6.931   3.998   0.856  0.1256 -0.2261 -0.9694
19072SOL    HW157394   6.924   4.089   0.815 -0.3439  0.6324  0.9147
19072SOL    HW257395   7.020   3.958   0.832  1.0261  1.4143 -0.5480
19073SOL     OW57396   1.668   8.738   1.473 -0.6773  0.1094  0.3547
19073SOL    HW157397   1.710   8.650   1.496 -0.2890  0.8902  2.9362
19073SOL    HW257398   1.737   8.810   1.472 -1.2913  0.7158  0.2888
19074SOL     OW57399   7.111   1.945   8.396  0.0612  0.4000 -0.1053
19074SOL    HW157400   7.110   1.991   8.485 -2.5218  0.3440 -0.0250
19074SOL    HW257401   7.183   1.876   8.395 -1.8087 -1.9290  3.2717
19075SOL     OW57402   3.426   6.462   1.760  0.1474 -0.4583  0.3919
19075SOL    HW157403   3.409   6.556   1.789  2.2167 -0.3644  1.5477
19075SOL    HW257404   3.381   6.399   1.823 -0.0384 -0.2478  0.4709
19076SOL     OW57405   6.849   7.189   3.086 -0.8653 -0.0755 -0.1713
19076SOL    HW157406   6.815   7.257   3.151  0.0437 -2.0660  2.5896
19076SOL    HW257407   6.921   7.229   3.030 -1.1463  1.5251  0.5397
19077SOL     OW57408   3.890   7.734   0.688  0.2896 -0.0232 -0.2541
19077SOL    HW157409   3.792   7.720   0.676  0.2593  0.2077 -0.2740
19077SOL    HW257410   3.936   7.729   0.599  0.0737  1.6163 -0.4769
19078SOL     OW57411   8.085   8.105   3.914 -0.5400  0.2672 -0.5162
19078SOL    HW157412   8.018   8.060   3.856 -1.0826  1.0916 -0.5501
19078SOL    HW257413   8.144   8.164   3.858 -1.3173  1.3712 -0.2187
19079SOL     OW57414   7.133   5.516   3.884 -0.1391  0.8300 -0.1306
19079SOL    HW157415   7.220   5.527   3.835 -0.4196 -1.5437 -1.3527
19079SOL    HW257416   7.063   5.484   3.819 -1.7073  1.8424  1.0037
19080SOL     OW57417   5.281   7.446   0.825 -0.4084  0.1455 -0.6489
19080SOL    HW157418   5.379   7.430   0.817 -0.4854  0.0545 -1.5726
19080SOL    HW257419   5.237   7.429   0.737 -1.2695  0.1011 -0.2274
19081SOL     OW57420   0.291   5.430   7.875 -0.0729 -1.1199  0.2926
19081SOL    HW157421   0.308   5.469   7.785 -0.9709  1.1209  1.0310
19081SOL    HW257422   0.193   5.433   7.895  0.0855 -1.8031  1.2547
19082SOL     OW57423   8.043   5.199   2.406 -0.1736  0.1279  0.2242
19082SOL    HW157424   8.060   5.280   2.462  0.1989 -0.7526  1.4393
19082SOL    HW257425   8.127   5.172   2.360 -0.3829  0.6193 -0.4676
19083SOL     OW57426   0.833   6.498   5.585 -0.2769  0.0027 -0.5030
19083SOL    HW157427   0.869   6.570   5.527 -0.7458  0.7610  0.1277
19083SOL    HW257428   0.904   6.467   5.649 -0.3341  0.5331 -0.1786
19084SOL     OW57429   5.836   2.083   2.654 -0.0421  0.1099  0.5957
19084SOL    HW157430   5.806   2.006   2.598  2.7244 -0.6809  0.0853
19084SOL    HW257431   5.856   2.051   2.747  0.0364  0.4404  0.6949
19085SOL     OW57432   8.381   2.938   4.054 -0.5121 -1.1031  0.2802
19085SOL    HW157433   8.311   3.009   4.043 -0.1427 -0.6587  0.7674
19085SOL    HW257434   8.404   2.929   4.151  1.3849 -0.0052 -0.0320
19086SOL     OW57435   4.817   8.005   2.034  0.0884 -0.3522  0.1688
19086SOL    HW157436   4.735   7.998   2.091 -0.3905 -2.5318 -0.7034
19086SOL    HW257437   4.875   7.924   2.047  0.6160 -0.2826 -1.4340
19087SOL     OW57438   2.340   3.527   2.125  0.8612 -0.7440 -0.5566
19087SOL    HW157439   2.359   3.518   2.223 -2.7184  0.2139  0.3663
19087SOL    HW257440   2.348   3.623   2.098  1.7402 -0.9889 -1.2289
19088SOL     OW57441   8.119   4.902   3.283 -0.2352  0.0093  0.1792
19088SOL    HW157442   8.109   4.870   3.189  2.4927 -0.5046 -0.0198
19088SOL    HW257443   8.086   4.831   3.346 -1.4740  0.0974 -0.3367
19089SOL     OW57444   4.776   3.921   6.430  0.6505  0.4910 -0.7878
19089SOL    HW157445   4.867   3.947   6.396  1.1562 -1.0227 -0.6344
19089SOL    HW257446   4.781   3.906   6.529  0.0547  1.1198 -0.6569
19090SOL     OW57447   3.302   1.791   2.847 -0.1773 -0.0094 -0.1200
19090SOL    HW157448   3.205   1.817   2.849 -0.0913  0.3049  1.3021
19090SOL    HW257449   3.309   1.691   2.843 -0.5894 -0.0976  0.9634
19091SOL     OW57450   6.244   8.596   4.815  0.5344 -0.7987 -0.2179
19091SOL    HW157451   6.238   8.558   4.908 -0.5055 -0.2595 -0.0507
19091SOL    HW257452   6.280   8.689   4.819 -0.3904 -0.4246 -0.2395
19092SOL     OW57453   2.031   5.742   5.349  0.2753 -0.3241  0.2459
19092SOL    HW157454   2.061   5.669   5.288  0.9137 -1.4793  1.8845
19092SOL    HW257455   2.111   5.795   5.379  0.0107  0.0009  0.3802
19093SOL     OW57456   5.186   4.494   5.760  0.5465  0.6049  0.5590
19093SOL    HW157457   5.167   4.580   5.809 -0.5257 -0.0970  1.4224
19093SOL    HW257458   5.126   4.487   5.681  0.4003  0.4962  0.6799
19094SOL     OW57459   1.712   1.858   7.216  0.0886 -0.5002 -0.8456
19094SOL    HW157460   1.683   1.788   7.282 -1.0115 -1.0179 -1.8368
19094SOL    HW257461   1.760   1.814   7.140  0.9929  0.0443 -0.5936
19095SOL     OW57462   1.220   1.579   3.384 -0.0660 -0.0581 -0.1064
19095SOL    HW157463   1.222   1.511   3.310 -2.6606  0.7434 -1.0246
19095SOL    HW257464   1.301   1.637   3.377 -0.5028  0.3697 -2.7628
19096SOL     OW57465   6.145   2.620   6.259 -0.3140  0.0501 -0.2203
19096SOL    HW157466   6.062   2.579   6.296  1.0569 -1.7034  1.0529
19096SOL    HW257467   6.184   2.683   6.325  0.4474 -0.6864  0.0456
19097SOL     OW57468   2.950   4.609   0.997 -0.7549 -0.0484  0.1345
19097SOL    HW157469   2.864   4.650   0.965 -0.7666  1.5402  2.0301
19097SOL    HW257470   3.002   4.677   1.049  1.5685 -1.0634 -0.7707
19098SOL     OW57471   7.332   4.185   0.943 -0.0583  0.2928 -0.1215
19098SOL    HW157472   7.378   4.273   0.948 -0.6394  0.5659  0.4734
19098SOL    HW257473   7.246   4.188   0.995 -0.1973 -0.5490 -0.2806
19099SOL     OW57474   0.652   0.902   6.078  0.4326  0.1959 -0.2399
19099SOL    HW157475   0.684   0.883   6.170 -0.8725 -1.9492 -0.1724
19099SOL    HW257476   0.727   0.885   6.013  1.0414  0.6797  0.3230
19100SOL     OW57477   3.598   3.521   0.634  0.0720  0.1696  0.5743
19100SOL    HW157478   3.580   3.617   0.612 -0.6623  0.1317  0.9599
19100SOL    HW257479   3.595   3.467   0.549 -0.4781  0.3534  0.4694
19101SOL     OW57480   1.177   7.624   0.430  0.3158  0.3628 -0.1444
19101SOL    HW157481   1.257   7.683   0.420  0.1653  0.8597  1.4025
19101SOL    HW257482   1.137   7.635   0.521  0.5682 -2.4546  0.4212
19102SOL     OW57483   4.281   7.833   6.639 -0.7160 -0.2291 -0.2645
19102SOL    HW157484   4.219   7.756   6.630 -1.5778  0.3735  0.2740
19102SOL    HW257485   4.298   7.874   6.549 -0.5284 -0.8317 -0.5032
19103SOL     OW57486   8.460   1.415   2.357 -0.1835 -0.0159  0.8950
19103SOL    HW157487   8.408   1.483   2.407 -1.3602 -0.0469 -0.2209
19103SOL    HW257488   8.397   1.361   2.299  1.1942  0.7323 -1.4216
19104SOL     OW57489   5.401   3.647   5.419  0.6401 -0.2438  0.3865
19104SOL    HW157490   5.371   3.566   5.471  0.3506  1.6278  3.3897
19104SOL    HW257491   5.482   3.686   5.463 -1.0725  2.8688  1.0249
19105SOL     OW57492   0.023   0.965   6.593  0.3293  0.2467 -0.6145
19105SOL    HW157493  -0.070   0.936   6.618 -1.6360  3.2010 -3.6327
19105SOL    HW257494   0.056   1.032   6.660  0.3481 -0.8149  0.4735
19106SOL     OW57495   8.165   0.107   2.611 -0.2989 -0.3612 -0.6176
19106SOL    HW157496   8.208   0.042   2.548  1.7631 -0.0929  0.4191
19106SOL    HW257497   8.088   0.062   2.657 -1.8107 -0.5863 -3.1521
19107SOL     OW57498   1.763   0.502   6.003 -0.6769 -0.1051  0.8307
19107SOL    HW157499   1.754   0.474   6.098 -0.1671 -0.0343  0.9004
19107SOL    HW257500   1.803   0.427   5.950  0.3160  0.3294  0.9409
19108SOL     OW57501   0.904   6.823   2.552 -0.7588  0.1810 -0.4422
19108SOL    HW157502   0.889   6.878   2.471  1.1046  0.5980 -0.5350
19108SOL    HW257503   0.991   6.847   2.594 -0.5085 -1.7593  0.2740
19109SOL     OW57504   6.612   3.698   3.518  0.1790  0.4614  0.1900
19109SOL    HW157505   6.606   3.782   3.465  0.1858 -0.2726 -1.0262
19109SOL    HW257506   6.650   3.625   3.460 -5.1807 -1.9835 -0.8327
19110SOL     OW57507   5.954   1.532   4.438  0.0129  0.3895  0.1782
19110SOL    HW157508   6.051   1.551   4.445 -0.0064 -0.0841  2.0524
19110SOL    HW257509   5.904   1.591   4.502 -0.6872 -1.0764  1.0101
19111SOL     OW57510   7.309   4.358   5.750  0.3577 -0.3930 -0.1393
19111SOL    HW157511   7.274   4.337   5.841 -0.0588 -1.5836 -0.5463
19111SOL    HW257512   7.235   4.351   5.684  0.9541 -1.0269 -0.7605
19112SOL     OW57513   3.589   3.620   1.694  0.4408  0.0498 -0.7256
19112SOL    HW157514   3.629   3.616   1.603 -0.0962 -0.6428 -0.9378
19112SOL    HW257515   3.649   3.571   1.758 -0.3646 -1.5865 -1.1699
19113SOL     OW57516   4.541   8.168   6.496  0.1156  0.3011 -0.8212
19113SOL    HW157517   4.476   8.179   6.571  1.7137  1.9296  0.3989
19113SOL    HW257518   4.572   8.074   6.492 -0.9579 -0.0921 -0.2889
19114SOL     OW57519   6.386   2.410   2.864 -0.5161  0.1165 -0.1521
19114SOL    HW157520   6.403   2.427   2.961  0.9674  1.5109 -0.6201
19114SOL    HW257521   6.444   2.336   2.832 -1.0278 -0.3639  0.0233
19115SOL     OW57522   3.510   7.055   5.701  0.1556  0.0178 -0.1445
19115SOL    HW157523   3.476   7.146   5.725 -0.4134 -0.3569  0.4921
19115SOL    HW257524   3.547   7.057   5.608  0.4995  0.9882  0.0034
19116SOL     OW57525   6.321   5.849   1.535 -0.6109 -0.7998  0.3750
19116SOL    HW157526   6.389   5.783   1.567 -1.1809 -1.2887  0.5815
19116SOL    HW257527   6.294   5.909   1.610 -0.8767 -1.0161  0.4539
19117SOL     OW57528   7.305   7.063   1.650 -0.1297  0.4850 -0.2106
19117SOL    HW157529   7.229   7.077   1.587 -1.0204  1.3389  1.0228
19117SOL    HW257530   7.312   7.141   1.712  2.0484  0.6434 -0.5727
19118SOL     OW57531   6.711   5.342   6.767  0.1693  0.6243 -0.1093
19118SOL    HW157532   6.718   5.329   6.866  0.6841  1.1350 -0.0670
19118SOL    HW257533   6.658   5.268   6.727  0.0537  0.3494  0.5353
19119SOL     OW57534   1.078   0.416   2.726 -0.7358 -0.4878  0.3059
19119SOL    HW157535   1.048   0.486   2.661  0.2188  0.4441  0.8366
19119SOL    HW257536   1.000   0.382   2.777 -1.1730  0.4598  0.2886
19120SOL     OW57537   5.614   3.844   4.077 -0.0835 -0.0789  0.7019
19120SOL    HW157538   5.705   3.802   4.071 -0.4476 -0.7996  0.0728
19120SOL    HW257539   5.621   3.941   4.052  0.1208 -0.7126 -2.0308
19121SOL     OW57540   1.493   4.486   1.794  0.2604  0.0381 -0.1435
19121SOL    HW157541   1.574   4.490   1.852  0.0024 -1.1029  0.3180
19121SOL    HW257542   1.437   4.567   1.809 -0.0305 -0.4505  1.5504
19122SOL     OW57543   4.634   6.562   8.739  0.1951 -0.1335  0.5582
19122SOL    HW157544   4.645   6.466   8.765 -0.9788 -0.3467  0.2911
19122SOL    HW257545   4.545   6.576   8.696  0.7179  0.9034 -0.2383
19123SOL     OW57546   4.555   3.880   7.092  0.3081  0.3377 -0.0776
19123SOL    HW157547   4.498   3.823   7.150  0.4836  0.2189 -0.0200
19123SOL    HW257548   4.646   3.839   7.084  0.8019  1.1978  0.8985
19124SOL     OW57549   5.827   7.591   4.061 -0.5548  0.0806  0.5527
19124SOL    HW157550   5.782   7.647   3.991 -0.9570 -0.3883  0.4348
19124SOL    HW257551   5.764   7.521   4.094  0.4324 -1.3132 -0.4037
19125SOL     OW57552   8.077   2.372   6.356  0.1018  0.1577  0.3420
19125SOL    HW157553   8.022   2.366   6.273  1.4950 -2.1118 -0.5394
19125SOL    HW257554   8.107   2.466   6.370  2.1966  0.2721 -3.4671
19126SOL     OW57555   2.586   6.763   2.667  0.1621  0.6573  0.2630
19126SOL    HW157556   2.674   6.797   2.636 -1.5139  2.5985 -2.9391
19126SOL    HW257557   2.543   6.710   2.594 -1.6139  0.3564  1.4593
19127SOL     OW57558   6.446   6.184   2.606  0.2533 -0.6158  0.6168
19127SOL    HW157559   6.480   6.215   2.517  0.2485 -0.5010  0.6549
19127SOL    HW257560   6.489   6.097   2.630 -0.1027 -0.8903  0.2797
19128SOL     OW57561   8.244   1.774   4.662 -0.3876 -0.3261 -0.2829
19128SOL    HW157562   8.210   1.682   4.646 -0.2044 -0.3770 -0.3885
19128SOL    HW257563   8.280   1.812   4.576 -0.6441 -0.0819 -0.2844
19129SOL     OW57564   0.094   2.894   5.260 -0.2830 -0.2300 -0.1306
19129SOL    HW157565   0.158   2.834   5.308  0.6100  0.7293 -0.0845
19129SOL    HW257566   0.146   2.961   5.206 -1.2657 -0.1852 -1.0376
19130SOL     OW57567   5.712   3.919   6.814  0.1813  0.1977  0.6225
19130SOL    HW157568   5.687   3.958   6.903 -1.9197 -0.2505  0.2964
19130SOL    HW257569   5.762   3.986   6.761 -0.6332  1.3396  1.2589
19131SOL     OW57570   7.495   2.777   8.259  0.5466 -0.3673 -0.4057
19131SOL    HW157571   7.443   2.854   8.295 -2.1623 -1.5761 -1.4500
19131SOL    HW257572   7.555   2.809   8.185 -0.4286  0.7463 -0.7399
19132SOL     OW57573   2.925   8.837   7.360  0.1934 -0.1931  0.2219
19132SOL    HW157574   2.862   8.759   7.361 -0.4955  0.3570  0.6011
19132SOL    HW257575   3.019   8.804   7.371 -0.1118 -0.9438  0.6593
19133SOL     OW57576   8.048   5.737   3.874 -0.0363 -0.4650 -0.2228
19133SOL    HW157577   7.987   5.688   3.936  1.6392 -1.8713  0.3792
19133SOL    HW257578   8.005   5.746   3.784 -0.7759 -2.2496 -0.0822
19134SOL     OW57579   8.301   7.772   3.219 -0.1771  0.0883  0.2906
19134SOL    HW157580   8.347   7.685   3.200  1.0057  1.1742 -2.3342
19134SOL    HW257581   8.205   7.766   3.189 -0.0785 -0.2970  0.0381
19135SOL     OW57582   3.409   7.478   6.017  0.2081  0.6837  0.6635
19135SOL    HW157583   3.364   7.516   5.935  0.6150  0.6752  0.4353
19135SOL    HW257584   3.375   7.386   6.033  0.1950  0.6498  0.4474
19136SOL     OW57585   1.221   4.458   5.056 -0.0281  0.6637 -0.2728
19136SOL    HW157586   1.240   4.382   5.119 -0.0047  0.5279 -0.4426
19136SOL    HW257587   1.136   4.502   5.083  0.7758  1.6065  0.8024
19137SOL     OW57588   6.235   0.634   5.325  0.0631 -0.0709 -0.1284
19137SOL    HW157589   6.332   0.657   5.337  0.6563 -1.4088 -1.8753
19137SOL    HW257590   6.227   0.539   5.295 -1.5739  0.6884 -2.4117
19138SOL     OW57591   8.556   7.207   2.626  0.3995  0.5303  0.0938
19138SOL    HW157592   8.517   7.293   2.595 -0.6544 -0.8607 -2.7790
19138SOL    HW257593   8.488   7.158   2.682 -0.1469  0.2782 -0.7767
19139SOL     OW57594   5.043   0.266   7.534  0.2749  0.6182  0.5136
19139SOL    HW157595   5.041   0.167   7.523 -0.5488  0.7264 -0.5343
19139SOL    HW257596   5.131   0.301   7.502 -0.3941  0.4465 -1.7274
19140SOL     OW57597   0.499   1.097   5.939 -0.1474 -0.4177  0.2285
19140SOL    HW157598   0.478   1.076   5.843  0.3053 -1.0267  0.2582
19140SOL    HW257599   0.552   1.022   5.979 -0.2030 -0.0982  0.9146
19141SOL     OW57600   7.981   6.097   3.579 -0.6992 -0.0492  0.0568
19141SOL    HW157601   8.005   6.098   3.676 -0.3126 -1.8402  0.0206
19141SOL    HW257602   7.887   6.065   3.568 -0.1011 -1.8368 -0.2121
19142SOL     OW57603   4.523   1.765   1.200 -0.2924 -0.1166  0.0612
19142SOL    HW157604   4.581   1.758   1.281  2.0663  0.1697 -1.4812
19142SOL    HW257605   4.429   1.741   1.223  0.6149 -1.6707  2.4776
19143SOL     OW57606   5.447   4.791   0.603  0.6327  0.6655 -0.1897
19143SOL    HW157607   5.445   4.890   0.590 -0.9201  0.5697 -0.9718
19143SOL    HW257608   5.364   4.751   0.563  0.4035 -0.7636  1.5973
19144SOL     OW57609   0.054   6.051   5.480  0.2979  0.2013 -0.2348
19144SOL    HW157610   0.051   6.121   5.551  1.3000  1.2001 -1.1309
19144SOL    HW257611  -0.030   5.997   5.482 -0.6099  1.5906  0.3184
19145SOL     OW57612   0.873   7.261   7.914  0.0138 -0.1202  0.0456
19145SOL    HW157613   0.863   7.358   7.895 -0.7956 -0.1614  0.2290
19145SOL    HW257614   0.951   7.225   7.864  0.6643  0.7418  0.4233
19146SOL     OW57615   2.453   2.227   8.111  0.0748  0.3083 -0.7109
19146SOL    HW157616   2.365   2.220   8.157  1.1287 -0.8271  1.2759
19146SOL    HW257617   2.489   2.135   8.092  0.6360  0.7509 -1.9421
19147SOL     OW57618   6.369   1.994   1.264  0.8983  0.0903 -0.3117
19147SOL    HW157619   6.334   2.057   1.333 -0.3554 -2.3041  1.3927
19147SOL    HW257620   6.312   1.998   1.182  0.0651  0.2685  0.2692
19148SOL     OW57621   3.593   5.107   6.816 -0.1947 -0.0529  0.2358
19148SOL    HW157622   3.602   5.018   6.861  2.0872  0.4219  0.8652
19148SOL    HW257623   3.604   5.179   6.884  3.6152  0.7027 -0.9425
19149SOL     OW57624   4.991   7.015   8.572 -0.5530 -0.4263 -0.1541
19149SOL    HW157625   5.032   7.086   8.515 -0.7087  1.1924  1.6402
19149SOL    HW257626   4.949   7.057   8.652  0.7664 -2.6624  1.8367
19150SOL     OW57627   3.304   3.397   3.041  0.1559  0.2339  0.4088
19150SOL    HW157628   3.207   3.380   3.022  0.2722  0.6100 -0.5690
19150SOL    HW257629   3.320   3.393   3.140 -0.8474  0.1363  0.5739
19151SOL     OW57630   1.073   4.676   5.938 -0.2587  0.0722  0.2294
19151SOL    HW157631   1.024   4.696   5.853  1.3177  2.9607 -0.1515
19151SOL    HW257632   1.160   4.631   5.918  0.3338  1.1850  0.2092
19152SOL     OW57633   0.283   7.598   0.970 -0.7031 -0.4570 -0.3205
19152SOL    HW157634   0.219   7.581   1.045  0.0407 -1.3735  0.1264
19152SOL    HW257635   0.310   7.694   0.971  0.6881 -0.8122  1.7284
19153SOL     OW57636   5.597   6.682   1.007  0.3940 -0.0148  0.6441
19153SOL    HW157637   5.669   6.752   1.002  0.1334  0.2017 -0.3149
19153SOL    HW257638   5.619   6.607   0.945  0.0429 -0.1876  0.7263
19154SOL     OW57639   3.053   2.306   0.139  0.2417  0.0275  0.1023
19154SOL    HW157640   2.987   2.353   0.198  0.1341 -1.4368  1.2073
19154SOL    HW257641   3.103   2.238   0.192  2.5267  0.9271 -0.7664
19155SOL     OW57642   7.906   5.265   4.675  0.4723 -0.1196 -0.1302
19155SOL    HW157643   7.845   5.332   4.718 -0.9497 -0.5923 -1.3350
19155SOL    HW257644   7.995   5.267   4.721  0.1825  1.9406  0.4366
19156SOL     OW57645   5.289   8.628   5.207 -0.0129 -0.3650  0.3222
19156SOL    HW157646   5.200   8.671   5.197 -0.0814 -0.3290  1.0442
19156SOL    HW257647   5.280   8.529   5.197  0.2422 -0.2123 -1.9966
19157SOL     OW57648   7.599   0.341   0.896 -0.0824 -0.5471  0.0363
19157SOL    HW157649   7.681   0.365   0.947 -0.5824  0.2493  0.4896
19157SOL    HW257650   7.624   0.297   0.810  0.8231  0.1510 -0.0584
19158SOL     OW57651   5.241   2.372   3.699 -0.3767 -0.6495 -0.4732
19158SOL    HW157652   5.307   2.446   3.715 -0.5864 -0.9243  2.2648
19158SOL    HW257653   5.161   2.409   3.651 -0.2506  0.8397  0.3833
19159SOL     OW57654   2.494   4.495   8.553  0.2824 -0.0270  0.2157
19159SOL    HW157655   2.528   4.447   8.473 -0.4256  0.1407 -0.1976
19159SOL    HW257656   2.455   4.583   8.525  0.3708  0.1989  0.7931
19160SOL     OW57657   5.550   1.093   8.813 -0.0700  0.1187  0.4259
19160SOL    HW157658   5.577   1.164   8.878  0.1458  0.8915 -0.4860
19160SOL    HW257659   5.482   1.130   8.750 -0.3548 -0.6481  0.2751
19161SOL     OW57660   8.750   5.637   4.611 -0.3081  0.3914 -0.5193
19161SOL    HW157661   8.685   5.589   4.670  0.5224 -1.1353 -0.7975
19161SOL    HW257662   8.730   5.617   4.516  1.1554 -0.9751 -0.5877
19162SOL     OW57663   0.784   6.126   0.770  0.0127  0.4520 -0.5416
19162SOL    HW157664   0.819   6.124   0.676 -1.1711  1.1666 -1.0102
19162SOL    HW257665   0.778   6.220   0.802 -0.2676  0.2580 -0.0023
19163SOL     OW57666   7.539   8.151   8.282  0.0939 -0.5212  0.6975
19163SOL    HW157667   7.506   8.082   8.347  0.1514  1.5903  3.1082
19163SOL    HW257668   7.633   8.130   8.257 -0.3983 -2.1697  0.1168
19164SOL     OW57669   4.576   2.677   4.111  0.4259  0.9592  0.2092
19164SOL    HW157670   4.503   2.721   4.059 -0.6283  0.5839  1.3150
19164SOL    HW257671   4.641   2.635   4.048  0.4288  2.4412 -0.8235
19165SOL     OW57672   7.012   4.128   8.794  0.3546 -0.3170  0.1094
19165SOL    HW157673   6.973   4.158   8.881 -1.9862 -0.5557 -0.7895
19165SOL    HW257674   7.034   4.208   8.739  2.1696 -0.1554  1.0091
19166SOL     OW57675   8.180   8.730   8.249  0.0672 -0.0202 -0.6342
19166SOL    HW157676   8.129   8.769   8.326 -0.3392 -1.8986  0.1038
19166SOL    HW257677   8.193   8.632   8.264  1.4645 -0.1135 -2.1696
19167SOL     OW57678   7.371   0.660   4.396  0.4059  0.1943 -0.2407
19167SOL    HW157679   7.274   0.684   4.384  0.3267 -0.0497 -0.1042
19167SOL    HW257680   7.426   0.710   4.330  0.1656  0.1980 -0.4424
19168SOL     OW57681   7.707   1.161   1.813  0.0496 -0.3374 -0.0307
19168SOL    HW157682   7.658   1.104   1.747 -0.7978 -1.3297  1.4002
19168SOL    HW257683   7.651   1.240   1.838  0.9225  0.7806 -1.4591
19169SOL     OW57684   7.484   1.055   0.684 -0.4216  0.1701 -0.3768
19169SOL    HW157685   7.440   0.999   0.614 -0.6129 -0.7544  0.4517
19169SOL    HW257686   7.550   0.999   0.733 -0.9684  0.5333  0.8008
19170SOL     OW57687   0.553   3.071   7.964  0.2325 -0.1552  0.2669
19170SOL    HW157688   0.475   3.079   8.026  0.2417 -0.8908  0.3891
19170SOL    HW257689   0.519   3.061   7.870  0.1326 -1.4733  0.4257
19171SOL     OW57690   2.743   2.960   4.537 -0.4332  0.1585  0.0843
19171SOL    HW157691   2.813   3.028   4.513  0.3055  0.0583  1.8005
19171SOL    HW257692   2.772   2.870   4.507  0.8848 -0.0982  1.9364
19172SOL     OW57693   3.694   1.073   8.566 -0.0690  0.1301 -0.0778
19172SOL    HW157694   3.652   0.988   8.599 -1.1655  0.9650  0.7955
19172SOL    HW257695   3.690   1.076   8.466 -1.1295 -0.3197 -0.0647
19173SOL     OW57696   3.129   2.361   7.029  0.5477 -0.0380 -0.5665
19173SOL    HW157697   3.150   2.269   6.997 -0.9754 -0.4971 -0.2705
19173SOL    HW257698   3.092   2.357   7.121  0.6165  0.8892 -0.4907
19174SOL     OW57699   2.977   2.153   4.467  0.7281 -0.0231  0.4196
19174SOL    HW157700   3.016   2.202   4.389  1.1029  0.0218  0.6360
19174SOL    HW257701   2.986   2.208   4.549  1.1243 -0.4381  0.6590
19175SOL     OW57702   7.378   4.719   6.288  0.0845 -0.3340 -0.4717
19175SOL    HW157703   7.376   4.785   6.364 -0.2891  0.2092 -0.9432
19175SOL    HW257704   7.300   4.657   6.296  0.4424 -0.7327 -0.0207
19176SOL     OW57705   7.664   8.824   1.427  0.1791 -0.2152  0.5497
19176SOL    HW157706   7.580   8.787   1.467  0.6268 -1.5949  0.2829
19176SOL    HW257707   7.740   8.811   1.491  0.4679 -0.3318  0.1846
19177SOL     OW57708   7.288   8.247   5.651  0.4271  0.1508 -0.4277
19177SOL    HW157709   7.347   8.267   5.573  0.3058  0.6303 -0.4002
19177SOL    HW257710   7.231   8.167   5.630  1.9381 -1.0930  0.0117
19178SOL     OW57711   8.250   5.700   6.565  0.1658  0.1751 -0.5842
19178SOL    HW157712   8.329   5.759   6.552 -1.2790  1.9395 -1.9073
19178SOL    HW257713   8.225   5.658   6.477 -1.1974  0.7838 -0.5078
19179SOL     OW57714   3.423   8.466   2.559 -0.2843 -0.0061  0.0941
19179SOL    HW157715   3.336   8.515   2.560  0.7838  2.1904  3.8386
19179SOL    HW257716   3.488   8.516   2.503 -0.5232  0.1836 -0.0191
19180SOL     OW57717   8.107   1.184   8.085  0.0883  0.1140 -0.0054
19180SOL    HW157718   8.167   1.165   8.008  0.9629  1.9228  0.1867
19180SOL    HW257719   8.038   1.251   8.058 -2.0586 -2.0338 -0.2743
19181SOL     OW57720   5.863   3.813   3.003  0.0096  0.2207  0.2103
19181SOL    HW157721   5.848   3.768   3.091 -1.1048 -1.3914 -0.7216
19181SOL    HW257722   5.776   3.851   2.970  0.7047  2.1001  0.4304
19182SOL     OW57723   7.719   4.452   2.858 -0.1057 -0.5129 -0.3593
19182SOL    HW157724   7.780   4.490   2.789 -0.3828 -0.1548 -0.4158
19182SOL    HW257725   7.684   4.364   2.827  0.5768 -0.8398 -0.2109
19183SOL     OW57726   6.253   3.150   7.657 -0.1494 -0.2458 -0.1682
19183SOL    HW157727   6.269   3.086   7.733 -2.8480  0.0042  0.7182
19183SOL    HW257728   6.293   3.114   7.574  0.9651 -1.6263  0.9208
19184SOL     OW57729   5.620   1.314   0.054 -0.2708  0.2185  0.3436
19184SOL    HW157730   5.698   1.307   0.117 -0.0139 -2.3293 -0.1767
19184SOL    HW257731   5.587   1.409   0.054  2.3242  1.2256  1.1547
19185SOL     OW57732   8.793   4.411   5.102 -0.5834  0.5268 -0.1488
19185SOL    HW157733   8.888   4.393   5.075 -0.7000 -0.3659 -0.0163
19185SOL    HW257734   8.759   4.333   5.155 -1.2246  1.0686  0.2528
19186SOL     OW57735   6.952   8.198   0.065 -0.4743 -1.5276 -0.0401
19186SOL    HW157736   6.971   8.278   0.008  0.3609 -0.5556  1.5183
19186SOL    HW257737   6.855   8.176   0.059 -1.3321  1.3068  1.5022
19187SOL     OW57738   3.281   4.125   0.657 -0.3788  0.2178  0.0120
19187SOL    HW157739   3.196   4.177   0.650 -0.4252  0.3440  1.2194
19187SOL    HW257740   3.279   4.068   0.739  0.4080 -0.3288 -0.3324
19188SOL     OW57741   8.239   6.014   8.469  0.1091  0.3010  0.5721
19188SOL    HW157742   8.189   5.927   8.470 -0.1763  0.4341 -0.5405
19188SOL    HW257743   8.317   6.008   8.531  0.3244 -0.8913  0.2133
19189SOL     OW57744   0.901   2.416   5.907 -0.2452  0.2219 -0.0524
19189SOL    HW157745   0.810   2.453   5.888  0.2758  0.8297 -1.5297
19189SOL    HW257746   0.894   2.318   5.925 -1.0599 -0.0446 -1.6462
19190SOL     OW57747   6.965   6.720   6.150 -0.3508 -0.0979 -0.1246
19190SOL    HW157748   6.928   6.648   6.209 -0.7552  1.7626  2.0110
19190SOL    HW257749   6.911   6.803   6.162  1.4901  1.2280 -0.7844
19191SOL     OW57750   0.183   6.706   6.324  0.7054 -0.0387 -0.0479
19191SOL    HW157751   0.233   6.673   6.243 -1.3269 -0.9499 -1.0086
19191SOL    HW257752   0.158   6.802   6.311 -0.3877 -0.4170 -0.9699
19192SOL     OW57753   3.648   1.054   8.311  0.6953 -0.4236  0.5533
19192SOL    HW157754   3.661   1.024   8.217 -1.4224 -0.9189  0.3612
19192SOL    HW257755   3.581   1.129   8.313  0.3472 -0.7418  1.6934
19193SOL     OW57756   5.629   8.449   3.358  0.1538  0.8751 -0.4297
19193SOL    HW157757   5.660   8.379   3.293 -0.6302  0.3811 -0.2929
19193SOL    HW257758   5.689   8.528   3.353 -0.2888  1.1432 -2.2670
19194SOL     OW57759   1.132   5.292   0.357 -0.0393 -0.3277 -0.5179
19194SOL    HW157760   1.079   5.233   0.418  2.4834 -2.5910 -0.2776
19194SOL    HW257761   1.192   5.350   0.412  1.3196 -1.4608 -0.7381
19195SOL     OW57762   3.410   1.114   1.113  0.2192 -0.3052 -0.4361
19195SOL    HW157763   3.355   1.161   1.043 -0.9086 -0.7684  0.1079
19195SOL    HW257764   3.426   1.175   1.190 -0.7570 -0.6002  0.0187
19196SOL     OW57765   2.318   1.359   2.161  0.4553  0.2714 -0.4622
19196SOL    HW157766   2.322   1.404   2.250 -2.1439  1.4534 -0.8611
19196SOL    HW257767   2.409   1.325   2.137  1.4144  0.7202  2.1998
19197SOL     OW57768   6.739   1.960   0.361 -0.2526  0.3502  0.1058
19197SOL    HW157769   6.824   1.973   0.411  0.1386 -2.0320  0.1865
19197SOL    HW257770   6.661   1.972   0.422  0.0922  0.6728  0.4844
19198SOL     OW57771   1.942   0.884   4.508 -0.1766  0.3722 -0.2719
19198SOL    HW157772   1.903   0.825   4.579  0.9649 -1.2102 -0.9096
19198SOL    HW257773   2.021   0.933   4.545  0.4128 -0.4454 -0.4321
19199SOL     OW57774   4.975   4.770   7.363  0.1791  0.1413  0.9336
19199SOL    HW157775   4.910   4.787   7.437 -0.6103  3.3601 -0.3286
19199SOL    HW257776   4.928   4.724   7.288 -0.4393  1.4406  0.4827
19200SOL     OW57777   5.247   7.163   5.643  0.1793 -0.5521  0.4897
19200SOL    HW157778   5.262   7.222   5.722  0.1770  0.0504  0.0473
19200SOL    HW257779   5.323   7.174   5.579  0.7338 -1.8476  0.8897
19201SOL     OW57780   7.253   3.674   2.526 -0.2490 -0.6743 -0.0649
19201SOL    HW157781   7.329   3.610   2.531 -1.2698 -1.9432 -0.2834
19201SOL    HW257782   7.177   3.639   2.580 -1.0791  0.0007 -0.7745
19202SOL     OW57783   0.900   0.252   7.190  0.5194  0.3792  0.2738
19202SOL    HW157784   0.978   0.312   7.173  0.7494  0.2215  0.7809
19202SOL    HW257785   0.818   0.307   7.203  0.4270  0.5309 -0.8220
19203SOL     OW57786   4.936   8.216   0.281 -0.5763  0.4988  0.3594
19203SOL    HW157787   4.947   8.271   0.198  0.3050  0.3938  0.4000
19203SOL    HW257788   4.885   8.269   0.349 -0.0070  1.1604  0.2851
19204SOL     OW57789   4.569   7.495   8.473  0.1039  0.4431 -0.6508
19204SOL    HW157790   4.506   7.554   8.424  0.4145  0.2655 -1.2848
19204SOL    HW257791   4.663   7.514   8.443  0.2431 -0.0739 -0.5562
19205SOL     OW57792   6.432   8.772   7.498 -0.3070  0.3986 -0.0455
19205SOL    HW157793   6.426   8.866   7.532  2.8260  1.2640 -1.5658
19205SOL    HW257794   6.421   8.771   7.399 -0.8337 -0.9634  0.0008
19206SOL     OW57795   7.379   5.596   4.384 -0.1739  0.0784 -0.3038
19206SOL    HW157796   7.364   5.540   4.303  1.5829  0.9400 -1.2844
19206SOL    HW257797   7.399   5.690   4.357  0.1254  0.4698  1.1547
19207SOL     OW57798   2.930   6.590   2.762  0.1815  0.3518 -0.1416
19207SOL    HW157799   2.859   6.567   2.695  0.1491  1.4236 -0.5012
19207SOL    HW257800   2.890   6.589   2.854 -0.4247  1.3227 -0.3733
19208SOL     OW57801   5.010   8.391   0.556  0.0398  0.3931 -0.5245
19208SOL    HW157802   4.986   8.421   0.464 -0.8558  0.1521 -0.3810
19208SOL    HW257803   5.049   8.467   0.607 -3.1263  1.6973  0.1731
19209SOL     OW57804   0.231   7.133   5.904 -0.4440 -0.1859 -0.4302
19209SOL    HW157805   0.162   7.079   5.855 -0.9198 -1.1592  1.2196
19209SOL    HW257806   0.216   7.230   5.887 -1.7665 -0.4171 -0.7003
19210SOL     OW57807   8.179   1.382   1.582  0.0453  0.2339  0.5723
19210SOL    HW157808   8.218   1.390   1.491 -2.6132 -0.5064 -0.7174
19210SOL    HW257809   8.188   1.288   1.615 -1.1677 -0.1175 -0.0339
19211SOL     OW57810   5.119   2.926   6.268  0.0896  0.0988  0.6508
19211SOL    HW157811   5.025   2.896   6.249  0.6072 -0.8885 -0.4885
19211SOL    HW257812   5.117   3.020   6.304 -1.1955  1.4099 -2.4128
19212SOL     OW57813   5.354   6.354   1.108  0.9114 -0.3207 -0.0410
19212SOL    HW157814   5.332   6.323   1.016  1.3036  1.0429 -0.6224
19212SOL    HW257815   5.445   6.395   1.109 -0.7162  3.7333 -0.1388
19213SOL     OW57816   4.019   0.083   8.139  0.3297 -0.2557  0.4408
19213SOL    HW157817   3.941   0.028   8.109  0.6470  0.2104 -1.3723
19213SOL    HW257818   4.059   0.043   8.222 -0.0539 -2.1862 -0.2529
19214SOL     OW57819   4.035   3.532   4.210  0.2807 -0.0725  0.2203
19214SOL    HW157820   4.055   3.442   4.248  0.1472  0.4920  1.7111
19214SOL    HW257821   3.978   3.583   4.274 -1.0436  0.4858 -1.3326
19215SOL     OW57822   3.810   8.443   3.909 -0.4124  0.2098  0.4068
19215SOL    HW157823   3.786   8.523   3.853  0.5632 -0.0790 -0.4428
19215SOL    HW257824   3.750   8.367   3.885 -1.5285  0.7388  1.4112
19216SOL     OW57825   7.280   5.503   2.212 -0.5444 -0.1190 -0.2143
19216SOL    HW157826   7.333   5.562   2.273  0.3970  0.2838 -1.3914
19216SOL    HW257827   7.230   5.435   2.267 -0.2062  0.5994  1.0350
19217SOL     OW57828   3.270   8.618   0.674 -0.5187 -0.5166 -0.0256
19217SOL    HW157829   3.315   8.574   0.597  0.1165  0.2560 -0.1105
19217SOL    HW257830   3.171   8.612   0.663 -0.4653  1.2515 -1.8904
19218SOL     OW57831   5.788   4.906   0.000 -0.1421 -0.5517 -0.1418
19218SOL    HW157832   5.881   4.938   0.019  0.1093 -1.7984  0.8361
19218SOL    HW257833   5.723   4.959   0.055  0.3289 -2.0800  2.0192
19219SOL     OW57834   2.837   0.210   6.423  0.0725  0.9567  0.1782
19219SOL    HW157835   2.870   0.217   6.518  3.5855 -0.4039 -0.8160
19219SOL    HW257836   2.899   0.153   6.370 -3.8766 -1.6409 -2.1185
19220SOL     OW57837   4.883   6.819   8.340 -0.9143 -0.0713  0.3474
19220SOL    HW157838   4.802   6.776   8.381 -0.0461 -0.4341  1.7839
19220SOL    HW257839   4.907   6.901   8.392  0.0623 -0.3792  0.4052
19221SOL     OW57840   8.417   5.833   7.874 -0.4705 -0.1659 -0.4413
19221SOL    HW157841   8.475   5.910   7.901  0.2413 -1.1401  0.9571
19221SOL    HW257842   8.470   5.770   7.817  0.2728 -1.5876  1.6939
19222SOL     OW57843   7.240   2.565   2.424  0.0509 -0.1640 -0.1295
19222SOL    HW157844   7.149   2.590   2.392  0.7953  0.1834 -2.1277
19222SOL    HW257845   7.302   2.555   2.345  2.3500  2.0000  1.2692
19223SOL     OW57846   6.756   3.766   2.439  0.4901 -0.5122 -0.2204
19223SOL    HW157847   6.702   3.836   2.485  0.6287 -0.7612  0.3389
19223SOL    HW257848   6.852   3.795   2.436  0.7699 -1.2258  1.1602
19224SOL     OW57849   2.440   4.412   0.405 -0.6339  0.2052  0.5812
19224SOL    HW157850   2.419   4.353   0.326 -1.0394  1.4932 -0.3017
19224SOL    HW257851   2.522   4.377   0.450  0.4752  0.2243 -1.2849
19225SOL     OW57852   7.178   4.822   5.322 -0.5967 -0.5731  0.4897
19225SOL    HW157853   7.159   4.753   5.251  0.9826 -0.3263 -0.2227
19225SOL    HW257854   7.176   4.779   5.412  1.1352 -1.7821  0.0036
19226SOL     OW57855   4.455   1.540   0.811 -0.0110  0.0327 -0.0422
19226SOL    HW157856   4.381   1.603   0.792 -1.2939 -1.3499  0.1834
19226SOL    HW257857   4.462   1.473   0.736 -0.4536 -1.1701  0.9658
19227SOL     OW57858   4.377   3.916   3.371  0.0050  0.3471  0.4097
19227SOL    HW157859   4.430   3.942   3.291 -1.4064 -0.6998 -0.9255
19227SOL    HW257860   4.438   3.900   3.449  1.4140  1.1821 -0.4971
19228SOL     OW57861   3.137   8.621   0.321  0.0966  0.1613  0.2613
19228SOL    HW157862   3.111   8.624   0.225  1.9408 -1.4335 -0.3385
19228SOL    HW257863   3.167   8.529   0.346  1.4312  0.9470  1.8513
19229SOL     OW57864   1.232   8.350   0.170 -0.0864 -0.0913 -0.0410
19229SOL    HW157865   1.144   8.327   0.210  0.6480 -2.6033  0.3034
19229SOL    HW257866   1.304   8.337   0.237  0.7084  0.5194 -0.7462
19230SOL     OW57867   5.212   3.633   4.939  0.1745 -0.3247  0.0775
19230SOL    HW157868   5.158   3.637   4.855  1.6439  0.7818 -0.8700
19230SOL    HW257869   5.153   3.650   5.018 -1.0152 -0.1063 -0.8379
19231SOL     OW57870   1.282   8.481   8.507  0.7428  0.1184  0.1833
19231SOL    HW157871   1.325   8.442   8.589 -2.5661  0.0973  2.1151
19231SOL    HW257872   1.264   8.578   8.523  0.7840  0.2990 -0.8512
19232SOL     OW57873   3.704   6.507   3.280  0.0565 -0.3437  0.6038
19232SOL    HW157874   3.748   6.496   3.369  1.0221 -0.8955  0.0668
19232SOL    HW257875   3.747   6.447   3.213  0.9207  1.7294 -0.8219
19233SOL     OW57876   6.380   7.147   1.641 -0.2882 -0.1712  0.0483
19233SOL    HW157877   6.432   7.111   1.718  1.5401 -1.5973 -1.7394
19233SOL    HW257878   6.383   7.247   1.643  0.9152 -0.2003  1.0509
19234SOL     OW57879   1.096   8.454   0.539 -0.6621  0.3505 -0.4968
19234SOL    HW157880   1.070   8.547   0.514 -2.1166 -0.1010 -0.7274
19234SOL    HW257881   1.042   8.425   0.618  0.0972 -0.1586 -0.1487
19235SOL     OW57882   2.922   5.721   8.706 -0.3462  0.0410 -0.4357
19235SOL    HW157883   2.884   5.708   8.798 -0.6950 -3.9511 -0.9752
19235SOL    HW257884   3.019   5.745   8.714 -0.1532 -1.0644  1.0058
19236SOL     OW57885   0.072   4.813   6.070  0.0052  0.4586  0.3052
19236SOL    HW157886   0.132   4.782   6.143  1.4115 -0.4643 -1.1803
19236SOL    HW257887   0.122   4.874   6.008 -0.7223  0.1160 -0.6594
19237SOL     OW57888   6.116   0.527   1.493  0.0987  0.0877  0.0854
19237SOL    HW157889   6.122   0.600   1.562  0.0427  0.8069 -0.6586
19237SOL    HW257890   6.034   0.540   1.438  0.3498 -0.2498 -0.3756
19238SOL     OW57891   0.452   0.938   0.695 -0.1689 -0.0743 -0.0379
19238SOL    HW157892   0.527   0.923   0.759  0.3934  0.4768 -0.5507
19238SOL    HW257893   0.474   1.016   0.636 -2.1720  1.6082  1.3273
19239SOL     OW57894   4.428   2.717   2.403 -0.4103  0.8265 -0.3335
19239SOL    HW157895   4.377   2.659   2.466 -0.6683  0.2813 -1.0303
19239SOL    HW257896   4.419   2.681   2.310  0.4210  1.2992 -0.6057
19240SOL     OW57897   2.351   2.282   6.218 -0.0731 -0.2680 -0.5638
19240SOL    HW157898   2.350   2.193   6.264 -0.8782 -0.8427 -1.6258
19240SOL    HW257899   2.399   2.349   6.274 -0.4623 -1.0943  0.7914
19241SOL     OW57900   2.480   8.820   0.222  0.1235 -0.1335 -0.2723
19241SOL    HW157901   2.577   8.827   0.199  0.3839 -1.3787  0.3848
19241SOL    HW257902   2.431   8.775   0.148 -0.0261  0.8071 -0.7566
19242SOL     OW57903   6.014   0.720   3.878  0.6159 -0.3050  0.0923
19242SOL    HW157904   5.939   0.661   3.907 -1.6875  0.8564 -2.9481
19242SOL    HW257905   6.089   0.712   3.943 -2.2610 -1.1605  3.6767
19243SOL     OW57906   7.430   3.734   4.006 -0.1964 -0.4003  0.5545
19243SOL    HW157907   7.486   3.655   3.982  0.4749  0.1161  0.3869
19243SOL    HW257908   7.397   3.779   3.923 -1.3737 -1.0512  0.6561
19244SOL     OW57909   2.152   4.715   4.529 -0.6154 -0.4453 -0.4855
19244SOL    HW157910   2.075   4.714   4.594  0.0725 -1.6564  0.3409
19244SOL    HW257911   2.144   4.796   4.471  0.1117  2.2097  2.7647
19245SOL     OW57912   7.796   1.127   8.403 -0.0270  0.6594 -0.3962
19245SOL    HW157913   7.817   1.188   8.479  0.2900  0.0963 -0.0287
19245SOL    HW257914   7.881   1.093   8.363 -0.1608  1.5367 -1.4919
19246SOL     OW57915   3.783   3.280   4.337 -0.3136 -0.4332 -0.3381
19246SOL    HW157916   3.739   3.296   4.426 -1.1621  0.6686 -0.9439
19246SOL    HW257917   3.882   3.285   4.349 -0.4422  1.1349  0.3011
19247SOL     OW57918   7.828   6.180   1.616 -0.5876  0.9157  0.4902
19247SOL    HW157919   7.812   6.276   1.638  0.7452  1.3785 -0.4845
19247SOL    HW257920   7.803   6.164   1.521  1.1316  0.7944  0.0400
19248SOL     OW57921   4.965   8.326   1.724 -0.1075 -0.2074  0.6076
19248SOL    HW157922   5.024   8.328   1.643 -1.2920 -0.3187 -0.2871
19248SOL    HW257923   4.978   8.411   1.775  0.3508  0.0600  0.0688
19249SOL     OW57924   5.298   8.056   1.752 -0.1957 -0.1967  0.3876
19249SOL    HW157925   5.242   8.004   1.687 -0.9755  0.2339  0.7051
19249SOL    HW257926   5.258   8.049   1.843 -1.0091  1.9537  0.2288
19250SOL     OW57927   7.729   7.711   6.663 -0.4879 -0.7085 -0.5133
19250SOL    HW157928   7.742   7.707   6.564 -1.0508 -2.3930 -0.5437
19250SOL    HW257929   7.803   7.660   6.709  1.1219  1.9749  0.1168
19251SOL     OW57930   6.112   1.267   1.272 -0.2907 -0.6757  0.8888
19251SOL    HW157931   6.147   1.181   1.234 -0.3109 -0.3648  0.1332
19251SOL    HW257932   6.012   1.261   1.280 -0.5110 -0.1035 -0.8895
19252SOL     OW57933   8.374   1.720   4.911  0.0093 -0.1435 -0.4050
19252SOL    HW157934   8.337   1.752   4.824  0.9243 -0.3560 -0.8889
19252SOL    HW257935   8.463   1.762   4.926 -0.0046 -0.3505  0.2837
19253SOL     OW57936   0.331   6.131   3.862  0.2500  0.2657  0.0267
19253SOL    HW157937   0.270   6.065   3.818  0.4686 -0.6715  1.0881
19253SOL    HW257938   0.292   6.159   3.950  0.9704  0.2715  0.3499
19254SOL     OW57939   3.150   7.483   8.507  0.2860 -0.2327 -0.3977
19254SOL    HW157940   3.221   7.433   8.458  1.3250 -0.1851  0.9828
19254SOL    HW257941   3.157   7.463   8.605 -0.9033  0.6486 -0.1096
19255SOL     OW57942   0.064   4.572   1.539 -0.1124  0.7790 -0.8348
19255SOL    HW157943   0.065   4.563   1.639  2.0514  1.8003 -0.7076
19255SOL    HW257944   0.110   4.494   1.498 -1.4570  0.0953 -1.1119
19256SOL     OW57945   8.634   5.231   0.739 -0.1321  0.2226  0.8189
19256SOL    HW157946   8.692   5.205   0.661  1.2521 -0.5883  2.0677
19256SOL    HW257947   8.690   5.270   0.811 -1.6222  2.6304  0.7874
19257SOL     OW57948   0.075   8.234   0.925 -0.6975 -0.3887  0.1986
19257SOL    HW157949   0.130   8.252   0.843  0.1409 -1.7324  0.4240
19257SOL    HW257950   0.008   8.163   0.904 -1.0178 -0.1614  0.4592
19258SOL     OW57951   4.815   1.380   5.036  0.6690 -0.1499  0.5779
19258SOL    HW157952   4.899   1.357   5.083  1.6662 -0.0683 -1.0791
19258SOL    HW257953   4.824   1.360   4.938 -0.3376  2.0860 -0.0631
19259SOL     OW57954   7.258   0.327   0.560 -0.0101  0.6178  0.1706
19259SOL    HW157955   7.219   0.349   0.471  0.4323  0.2457 -0.1198
19259SOL    HW257956   7.300   0.409   0.599 -1.3668  1.1124  0.6452
19260SOL     OW57957   0.123   5.347   5.240 -0.5800 -0.7033 -0.2030
19260SOL    HW157958   0.028   5.326   5.215 -0.3767 -1.0718 -0.6731
19260SOL    HW257959   0.156   5.422   5.183 -0.8751  0.0375  0.5774
19261SOL     OW57960   3.802   8.369   6.513  0.9729  0.8252  0.1873
19261SOL    HW157961   3.728   8.374   6.581  0.1133 -2.3231 -0.3578
19261SOL    HW257962   3.888   8.397   6.556  0.3768 -0.5345  2.4618
19262SOL     OW57963   0.777   1.704   8.802 -0.2825  0.4252 -0.1639
19262SOL    HW157964   0.795   1.653   8.718  1.5933  1.6843 -0.5970
19262SOL    HW257965   0.778   1.803   8.783 -2.5828  0.7288  0.8717
19263SOL     OW57966   7.342   7.791   7.075 -0.5507 -0.3717 -0.4148
19263SOL    HW157967   7.434   7.757   7.090 -1.0641 -1.2919  0.8611
19263SOL    HW257968   7.285   7.718   7.036 -0.7155  0.2309 -1.3405
19264SOL     OW57969   6.602   5.407   8.660 -0.0326 -0.0672 -0.1760
19264SOL    HW157970   6.630   5.481   8.599 -0.8813  1.5095  1.2713
19264SOL    HW257971   6.532   5.352   8.615  0.3085  0.2638 -1.1276
19265SOL     OW57972   5.075   5.760   4.236 -0.1739 -0.2971 -0.1715
19265SOL    HW157973   4.993   5.766   4.293 -0.4440 -0.1004 -0.5683
19265SOL    HW257974   5.081   5.842   4.179  1.6834  0.9225  1.6517
19266SOL     OW57975   1.179   6.955   0.504  0.2073 -0.0033  0.2723
19266SOL    HW157976   1.131   7.043   0.495  1.1535  0.4421 -0.7163
19266SOL    HW257977   1.133   6.887   0.447 -1.2104 -0.4981  1.9086
19267SOL     OW57978   4.188   3.908   1.439 -0.0697  0.3473  0.1804
19267SOL    HW157979   4.098   3.865   1.426 -0.1972  0.3769  0.9584
19267SOL    HW257980   4.215   3.953   1.354  1.1030 -3.1785 -1.5485
19268SOL     OW57981   0.178   5.421   1.284 -0.3865 -0.0175 -0.0642
19268SOL    HW157982   0.221   5.331   1.296 -1.1466 -0.4206 -0.3504
19268SOL    HW257983   0.248   5.487   1.258  0.0560 -0.6918 -0.6359
19269SOL     OW57984   3.738   6.237   6.254  0.5862 -0.1541  0.5148
19269SOL    HW157985   3.811   6.305   6.261 -0.6170  1.0149  2.2882
19269SOL    HW257986   3.726   6.191   6.342 -0.6000 -0.5766  0.1521
19270SOL     OW57987   3.241   3.798   3.309  0.5197 -0.2186 -0.2176
19270SOL    HW157988   3.281   3.755   3.228  1.2602  1.3419 -0.7164
19270SOL    HW257989   3.143   3.780   3.311  0.2870  0.5736 -2.0535
19271SOL     OW57990   8.067   6.979   6.254  0.0826  0.4391 -0.3712
19271SOL    HW157991   8.154   6.935   6.234  0.2191  0.7378 -0.4478
19271SOL    HW257992   8.052   6.980   6.353  0.8549  1.6619 -0.2462
19272SOL     OW57993   6.739   1.356   6.845 -0.4435 -0.2264 -0.1038
19272SOL    HW157994   6.692   1.336   6.931 -1.3715  0.5285 -0.4073
19272SOL    HW257995   6.718   1.284   6.779 -1.9032  0.5142 -0.4942
19273SOL     OW57996   2.931   1.226   6.637  0.5162  0.0708 -0.1455
19273SOL    HW157997   2.938   1.314   6.590  2.0119 -0.0861 -0.2452
19273SOL    HW257998   3.022   1.195   6.665  0.0811 -1.6999 -0.5611
19274SOL     OW57999   2.875   2.371   3.772  0.3290  0.6189  0.0076
19274SOL    HW158000   2.883   2.314   3.853  0.6619  1.0610  0.2929
19274SOL    HW258001   2.799   2.436   3.784  0.0648  0.3604 -0.2414
19275SOL     OW58002   6.451   0.035   6.788 -0.0936 -0.5633 -0.2551
19275SOL    HW158003   6.359   0.062   6.815  0.5313  0.8630  0.5430
19275SOL    HW258004   6.481  -0.042   6.845  0.2052  0.7066  1.3616
19276SOL     OW58005   4.188   3.594   4.021 -0.1658  0.7436  0.0804
19276SOL    HW158006   4.182   3.688   3.987 -1.7927  0.7591  0.3424
19276SOL    HW258007   4.106   3.572   4.074  1.3307  0.0409  2.2775
19277SOL     OW58008   7.596   7.318   2.960 -0.1300 -0.1381 -0.4564
19277SOL    HW158009   7.679   7.265   2.944 -0.4197 -0.1740 -1.9927
19277SOL    HW258010   7.533   7.265   3.016  0.4501 -0.5417 -0.1759
19278SOL     OW58011   5.704   1.551   7.626  0.4276 -0.1241 -0.0545
19278SOL    HW158012   5.653   1.489   7.565  1.7784 -0.2957 -1.0761
19278SOL    HW258013   5.743   1.626   7.572 -0.2597  1.0255  0.9967
19279SOL     OW58014   4.945   6.673   7.555 -0.4722  0.4251 -0.3573
19279SOL    HW158015   4.902   6.761   7.535 -0.1646  0.4366 -0.9912
19279SOL    HW258016   5.044   6.684   7.555 -0.4363  0.3986  1.0766
19280SOL     OW58017   7.257   0.463   1.940 -0.0906  0.3640  0.5667
19280SOL    HW158018   7.224   0.413   1.861  0.1562  0.1986  0.5671
19280SOL    HW258019   7.341   0.512   1.916 -1.1721  2.0702  0.1052
19281SOL     OW58020   5.192   6.210   5.892  0.3025  0.0481 -0.2276
19281SOL    HW158021   5.122   6.144   5.921 -0.4554  0.2838 -1.4662
19281SOL    HW258022   5.182   6.294   5.945 -0.2522  0.0231 -0.2898
19282SOL     OW58023   0.196   3.091   5.126  0.5868  0.3969 -0.4730
19282SOL    HW158024   0.249   3.166   5.166 -3.0507  0.9358  4.2286
19282SOL    HW258025   0.129   3.128   5.062  0.6461  0.8359 -0.2874
19283SOL     OW58026   1.112   1.110   0.095 -0.2024 -0.7082  0.4334
19283SOL    HW158027   1.172   1.105   0.015 -0.2888  1.3750  0.1738
19283SOL    HW258028   1.033   1.167   0.073 -1.5604 -2.2092  1.2392
19284SOL     OW58029   0.038   8.694   7.107 -0.6067 -0.5812 -0.3163
19284SOL    HW158030   0.012   8.674   7.201  0.8351 -0.1049  0.2163
19284SOL    HW258031   0.137   8.710   7.103 -0.4947 -1.4901 -2.0664
19285SOL     OW58032   2.527   3.813   1.674 -0.1771 -0.0632  0.0874
19285SOL    HW158033   2.613   3.785   1.631  0.5348  1.3309  0.5498
19285SOL    HW258034   2.544   3.892   1.734 -1.8862  0.6329 -0.2996
19286SOL     OW58035   4.283   0.799   3.559 -0.1323 -1.2989 -0.5128
19286SOL    HW158036   4.202   0.847   3.591  0.0484  0.4445 -2.4427
19286SOL    HW258037   4.260   0.704   3.539 -1.1568 -1.3751  0.9034
19287SOL     OW58038   0.758   0.227   8.857  0.1111 -0.7331  0.6112
19287SOL    HW158039   0.659   0.237   8.846  0.3846  0.8970 -0.7689
19287SOL    HW258040   0.785   0.135   8.830 -0.7072 -0.3204 -1.8919
19288SOL     OW58041   4.547   1.604   6.635 -0.2627 -0.7056  0.0950
19288SOL    HW158042   4.615   1.646   6.695 -0.6049  1.9641 -1.2311
19288SOL    HW258043   4.558   1.505   6.636  1.7936 -0.5355  2.0553
19289SOL     OW58044   4.496   2.875   7.560 -0.3498  0.9162 -0.3856
19289SOL    HW158045   4.423   2.921   7.510 -0.0277  0.8934 -0.8809
19289SOL    HW258046   4.557   2.830   7.496  0.1944  1.0709  0.0193
19290SOL     OW58047   8.731   5.405   1.616 -0.0211  0.1804  0.2189
19290SOL    HW158048   8.639   5.369   1.598 -0.8494  1.8225  0.9471
19290SOL    HW258049   8.764   5.452   1.534 -0.4894  0.9108  0.4425
19291SOL     OW58050   2.386   6.480   7.211 -0.1868  0.1195 -0.4574
19291SOL    HW158051   2.355   6.465   7.118 -0.7573 -0.2685 -0.2095
19291SOL    HW258052   2.454   6.410   7.235 -2.0480 -1.5268  0.3273
19292SOL     OW58053   6.969   0.470   1.965  0.2911 -0.0031  0.7297
19292SOL    HW158054   6.935   0.466   1.870 -0.2731  1.3033  0.8562
19292SOL    HW258055   7.062   0.433   1.968 -0.4827 -2.1726  0.0821
19293SOL     OW58056   3.632   8.458   1.917 -0.1578  0.1018 -0.4808
19293SOL    HW158057   3.551   8.452   1.859  0.7349  0.0052 -1.7736
19293SOL    HW258058   3.657   8.366   1.949 -1.0546  0.2418  0.6533
19294SOL     OW58059   6.905   2.761   0.426 -0.0759  0.0108 -0.1671
19294SOL    HW158060   6.976   2.831   0.435  0.5065 -0.2766 -1.9809
19294SOL    HW258061   6.948   2.675   0.398 -1.1551 -0.1077 -1.5379
19295SOL     OW58062   8.513   2.174   1.932 -0.6184  0.3489 -0.7750
19295SOL    HW158063   8.469   2.254   1.971  1.5865  0.9791  0.6398
19295SOL    HW258064   8.546   2.195   1.840 -1.5885  0.4556 -1.1107
19296SOL     OW58065   7.762   0.395   0.571  0.0568  0.8901 -0.4519
19296SOL    HW158066   7.698   0.329   0.609  1.0361  0.1804  0.0001
19296SOL    HW258067   7.748   0.484   0.615 -1.6370  1.1769 -1.4513
19297SOL     OW58068   8.693   6.990   6.199  0.2849 -0.4734  0.1518
19297SOL    HW158069   8.627   7.035   6.259 -0.7705 -2.7553  0.8101
19297SOL    HW258070   8.674   7.014   6.104 -0.0946  0.6169  0.4934
19298SOL     OW58071   5.495   4.775   3.037 -0.4363 -0.7829 -0.2511
19298SOL    HW158072   5.441   4.691   3.028 -0.5986 -0.6441 -0.5850
19298SOL    HW258073   5.552   4.786   2.956 -0.3125 -0.6396 -0.1445
19299SOL     OW58074   6.302   6.790   8.394  0.3659  0.6240 -0.7562
19299SOL    HW158075   6.398   6.769   8.374  0.0193 -0.0127 -1.8126
19299SOL    HW258076   6.243   6.727   8.344 -0.5914 -0.9419  2.1112
19300SOL     OW58077   1.473   1.055   8.658 -0.0882 -0.6273 -0.8610
19300SOL    HW158078   1.572   1.066   8.667 -0.3740 -0.0251  2.4075
19300SOL    HW258079   1.450   0.958   8.665  0.2123 -0.7296 -1.2355
19301SOL     OW58080   0.913   7.804   3.105  0.1175 -0.4177  0.0809
19301SOL    HW158081   0.932   7.723   3.049  0.5118 -1.0961  1.1743
19301SOL    HW258082   0.912   7.778   3.201 -0.7136  0.7062  0.3925
19302SOL     OW58083   6.489   1.436   4.469 -0.7104  0.1883  0.2288
19302SOL    HW158084   6.560   1.443   4.400  0.3773 -0.9770  1.1907
19302SOL    HW258085   6.523   1.472   4.556 -1.4149 -0.0943  0.6279
19303SOL     OW58086   7.975   3.664   1.796  0.1602 -0.4124  0.0330
19303SOL    HW158087   7.916   3.585   1.813 -0.9550  0.3473 -0.2716
19303SOL    HW258088   7.946   3.741   1.852  0.2620  0.2572 -0.8062
19304SOL     OW58089   1.889   8.256   7.699 -0.5885  0.6741  0.1019
19304SOL    HW158090   1.941   8.314   7.763  1.3966  1.5557 -2.1728
19304SOL    HW258091   1.947   8.183   7.665 -1.5891  0.2674 -0.7777
19305SOL     OW58092   0.578   7.003   2.185  0.0469  0.0583 -1.1198
19305SOL    HW158093   0.584   6.978   2.281 -1.0756 -0.2500 -1.1140
19305SOL    HW258094   0.519   6.937   2.137 -3.4939  2.8287 -1.0127
19306SOL     OW58095   3.251   3.781   8.815 -0.5866 -0.1099 -0.0644
19306SOL    HW158096   3.341   3.779   8.773 -0.1325 -0.2984  0.9070
19306SOL    HW258097   3.207   3.869   8.795  0.0423  0.2107 -0.0453
19307SOL     OW58098   0.948   3.901   8.375  0.2786 -0.6226 -0.2020
19307SOL    HW158099   0.859   3.886   8.419 -0.3000  1.7645 -0.4093
19307SOL    HW258100   0.996   3.814   8.367 -1.1624 -1.6990  1.7714
19308SOL     OW58101   6.942   5.742   2.815  0.1599  0.3341  0.3926
19308SOL    HW158102   6.863   5.784   2.771 -0.7610 -1.1208  0.5952
19308SOL    HW258103   7.013   5.812   2.831 -0.4102  1.3476 -1.2620
19309SOL     OW58104   2.543   2.817   4.219  0.2849  0.4121  0.4829
19309SOL    HW158105   2.593   2.744   4.174  0.5709 -0.4674  2.1428
19309SOL    HW258106   2.487   2.779   4.293 -0.6451  1.7088  0.4954
19310SOL     OW58107   1.400   1.289   7.009 -0.4626  0.9031  0.2662
19310SOL    HW158108   1.336   1.224   7.051 -1.0594  2.0635  1.2127
19310SOL    HW258109   1.350   1.369   6.976  0.4318  1.6064  0.5653
19311SOL     OW58110   8.529   8.527   4.646 -0.0301  0.0880  0.1008
19311SOL    HW158111   8.447   8.559   4.694  0.8968  2.5840  0.1945
19311SOL    HW258112   8.542   8.580   4.563  0.0861 -2.1009 -1.3628
19312SOL     OW58113   2.999   0.536   3.391  0.5313  0.8178 -0.4941
19312SOL    HW158114   3.053   0.548   3.474  0.5698 -0.1411 -0.3684
19312SOL    HW258115   3.020   0.610   3.327  0.2716  1.7465  0.4532
19313SOL     OW58116   0.159   3.470   0.470 -0.2059  0.0529 -0.0161
19313SOL    HW158117   0.145   3.566   0.495 -0.6852  0.6685 -2.3903
19313SOL    HW258118   0.187   3.418   0.551  0.0595  2.1777  1.3354
19314SOL     OW58119   7.258   0.713   1.081 -0.0480  0.5462  0.2013
19314SOL    HW158120   7.261   0.812   1.096  0.4225  0.4738  0.6041
19314SOL    HW258121   7.166   0.687   1.050 -0.2957  1.0497  0.4967
19315SOL     OW58122   7.892   5.467   0.898  0.3329  0.9224  0.1083
19315SOL    HW158123   7.956   5.518   0.840  3.5084 -3.0381 -0.2598
19315SOL    HW258124   7.832   5.411   0.841  0.7003  0.0685  0.5467
19316SOL     OW58125   0.665   8.828   0.592  0.0566  0.0555 -0.7904
19316SOL    HW158126   0.663   8.824   0.492  0.6002 -2.9721 -0.7849
19316SOL    HW258127   0.754   8.863   0.622  0.5160 -0.5286 -1.4151
19317SOL     OW58128   6.929   1.582   2.478 -0.1199  0.0770  0.2383
19317SOL    HW158129   7.004   1.571   2.412 -0.0811 -1.1918  0.4758
19317SOL    HW258130   6.843   1.553   2.436 -0.0555 -0.9796  0.8198
19318SOL     OW58131   1.955   0.380   7.575  0.0361  0.3815  0.8839
19318SOL    HW158132   1.909   0.293   7.556 -1.4120  1.4440 -0.8141
19318SOL    HW258133   2.035   0.363   7.632 -0.4627 -1.9944  1.0048
19319SOL     OW58134   3.678   2.482   2.431 -0.5652  0.5318  0.0898
19319SOL    HW158135   3.598   2.512   2.482  0.5778 -3.1121  4.6755
19319SOL    HW258136   3.755   2.543   2.449 -0.4712 -0.1007  2.0013
19320SOL     OW58137   1.533   1.741   2.951 -0.5668 -0.1997 -0.3863
19320SOL    HW158138   1.603   1.761   2.882 -0.3404  0.8965  0.1348
19320SOL    HW258139   1.495   1.827   2.986 -1.4049 -0.7613  0.1165
19321SOL     OW58140   4.775   0.677   7.296 -0.1975  0.0856 -0.1912
19321SOL    HW158141   4.732   0.624   7.369  0.5165  0.0389  0.2084
19321SOL    HW258142   4.788   0.618   7.216  1.0865 -0.5394  0.4333
19322SOL     OW58143   4.755   7.890   4.981 -0.2437  0.1367  0.1590
19322SOL    HW158144   4.757   7.811   5.042 -1.1835 -0.7976 -0.9579
19322SOL    HW258145   4.660   7.922   4.972 -0.3522 -0.5969 -1.7962
19323SOL     OW58146   1.815   4.497   8.295 -0.5460  0.1485 -0.6239
19323SOL    HW158147   1.796   4.570   8.361 -0.7037 -0.3366 -0.1243
19323SOL    HW258148   1.867   4.534   8.218  0.2365  0.5820  0.1051
19324SOL     OW58149   1.145   6.724   5.722 -0.4148  0.2864  0.0258
19324SOL    HW158150   1.153   6.763   5.813 -1.7051  0.2144  0.1990
19324SOL    HW258151   1.067   6.661   5.720 -0.5115  0.4145 -1.1600
19325SOL     OW58152   5.957   4.613   7.446 -0.4186  0.2300 -0.3499
19325SOL    HW158153   5.998   4.581   7.532 -0.7965 -1.3370 -0.7226
19325SOL    HW258154   5.907   4.697   7.463 -0.4178 -0.0024  0.9533
19326SOL     OW58155   1.848   4.489   6.299  0.5675 -0.3715 -0.0141
19326SOL    HW158156   1.927   4.454   6.350  0.4474 -0.7773 -0.1083
19326SOL    HW258157   1.773   4.508   6.362  0.0589 -1.8476 -0.1481
19327SOL     OW58158   4.306   3.523   0.693  0.4049 -0.5055 -0.3783
19327SOL    HW158159   4.346   3.575   0.618 -0.5256  0.9949  0.1213
19327SOL    HW258160   4.376   3.504   0.761  0.9532 -0.6979 -0.9867
19328SOL     OW58161   3.970   2.456   1.303  0.2758 -0.7182 -0.2963
19328SOL    HW158162   3.963   2.556   1.309 -0.5839 -0.8361  1.3091
19328SOL    HW258163   3.882   2.415   1.327  0.9605 -1.8893  0.3018
19329SOL     OW58164   4.598   6.063   8.320  0.2171 -0.1324  0.4310
19329SOL    HW158165   4.578   6.117   8.238  0.0585 -2.8067 -1.4159
19329SOL    HW258166   4.697   6.057   8.333  0.3527 -1.4824 -0.9306
19330SOL     OW58167   5.830   5.898   8.560 -0.1791  0.5560  0.1912
19330SOL    HW158168   5.762   5.967   8.534 -0.1798  0.7590  0.7179
19330SOL    HW258169   5.830   5.824   8.493 -0.3239  0.9691 -0.2679
19331SOL     OW58170   4.029   5.382   6.729 -0.6885  0.0936  0.4817
19331SOL    HW158171   4.035   5.316   6.654  2.5515 -1.7081  2.1331
19331SOL    HW258172   4.079   5.465   6.705 -1.1348  0.2472  0.0513
19332SOL     OW58173   6.202   7.517   6.795 -0.4115 -0.1197  0.2041
19332SOL    HW158174   6.116   7.485   6.756  0.5787 -0.0902 -2.1364
19332SOL    HW258175   6.256   7.438   6.827 -0.6204 -0.2634  0.2031
19333SOL     OW58176   1.657   4.785   1.939 -0.1527 -0.0219  0.0786
19333SOL    HW158177   1.752   4.753   1.948 -0.6235 -1.9896 -1.3447
19333SOL    HW258178   1.657   4.878   1.903  1.2577  1.3222  3.1995
19334SOL     OW58179   6.240   6.389   5.911  0.0568  0.1385 -0.3007
19334SOL    HW158180   6.295   6.471   5.931 -0.0406 -0.2222  1.7336
19334SOL    HW258181   6.268   6.315   5.973  0.0828 -1.3716 -2.0465
19335SOL     OW58182   4.170   4.787   3.541 -0.0092  0.3373 -0.0557
19335SOL    HW158183   4.200   4.748   3.628  2.4497 -0.1502 -1.0419
19335SOL    HW258184   4.143   4.713   3.479  0.2340  0.5360 -0.4015
19336SOL     OW58185   8.580   1.584   6.675  0.3638 -0.4684 -0.4828
19336SOL    HW158186   8.586   1.582   6.576 -2.5734  0.4705 -0.7994
19336SOL    HW258187   8.610   1.673   6.710  0.1812 -0.3275 -0.6839
19337SOL     OW58188   4.569   6.590   7.234 -0.0989 -0.0109  0.1310
19337SOL    HW158189   4.529   6.552   7.151  1.1196  0.6303 -0.7700
19337SOL    HW258190   4.641   6.530   7.268 -0.0820  0.1030  0.3001
19338SOL     OW58191   3.638   5.037   0.266  0.6511  0.3488 -0.4795
19338SOL    HW158192   3.640   5.045   0.366 -2.3391 -0.6170 -0.2355
19338SOL    HW258193   3.685   5.115   0.225  2.2670  0.5831  1.6408
19339SOL     OW58194   7.092   3.103   4.442 -0.0281  0.2443 -0.2525
19339SOL    HW158195   7.155   3.069   4.372 -1.7263 -0.2249 -1.5991
19339SOL    HW258196   6.998   3.083   4.416 -0.7463  0.2856  2.0557
19340SOL     OW58197   1.094   3.266   3.629 -0.0487  0.1541  0.4292
19340SOL    HW158198   1.093   3.277   3.728 -0.5196 -0.4417  0.4962
19340SOL    HW258199   1.130   3.176   3.606 -0.3431  0.1225  0.0802
19341SOL     OW58200   3.824   6.806   3.908 -0.0092  0.9783  0.2862
19341SOL    HW158201   3.769   6.889   3.901  0.6353  1.3613 -0.4767
19341SOL    HW258202   3.903   6.823   3.967 -0.6236  0.4626  1.2928
19342SOL     OW58203   2.196   1.354   5.512  0.3008  0.3032 -0.4315
19342SOL    HW158204   2.172   1.279   5.574  0.5390 -0.5382 -1.3109
19342SOL    HW258205   2.290   1.384   5.531  1.1180 -1.3098 -1.6133
19343SOL     OW58206   0.882   0.069   3.461 -0.2102 -0.0016 -0.1489
19343SOL    HW158207   0.799   0.121   3.478 -0.0488 -0.0003  0.6893
19343SOL    HW258208   0.961   0.130   3.465  0.2062 -0.5632  3.0331
19344SOL     OW58209   5.373   3.395   6.790  0.5657 -0.2480 -0.2836
19344SOL    HW158210   5.452   3.345   6.754  1.6352  1.3548 -0.2512
19344SOL    HW258211   5.300   3.330   6.814  1.0963 -1.6232 -2.1593
19345SOL     OW58212   7.138   2.469   6.690 -0.4298  0.1067  0.3924
19345SOL    HW158213   7.154   2.507   6.781 -0.8150 -0.1869  0.5896
19345SOL    HW258214   7.059   2.514   6.648 -0.2955  0.1931  0.2327
19346SOL     OW58215   2.226   6.840   3.552 -0.1068 -0.1406 -0.3088
19346SOL    HW158216   2.215   6.921   3.609  1.1866 -0.0165 -0.1938
19346SOL    HW258217   2.167   6.847   3.472 -0.2916  0.7407 -0.1026
19347SOL     OW58218   0.507   1.840   0.569  0.3681 -0.1120  0.4520
19347SOL    HW158219   0.532   1.924   0.521  0.1709 -1.3626 -2.0242
19347SOL    HW258220   0.410   1.821   0.553  0.2888 -0.5617  1.4166
19348SOL     OW58221   5.091   0.956   8.546  0.0431  0.2793  0.8120
19348SOL    HW158222   5.079   1.047   8.585  1.0036 -0.1101  2.0837
19348SOL    HW258223   5.167   0.956   8.481 -0.4200  0.5299  0.2593
19349SOL     OW58224   6.762   3.308   0.175 -0.3078  0.2268  0.3977
19349SOL    HW158225   6.808   3.384   0.220 -1.1203 -1.0282  3.6077
19349SOL    HW258226   6.665   3.307   0.200 -0.9308 -0.3209 -1.8079
19350SOL     OW58227   6.976   6.314   4.006  0.3214 -0.2489  0.7124
19350SOL    HW158228   6.950   6.402   3.964  4.3759  0.1040 -1.5854
19350SOL    HW258229   7.004   6.329   4.101  0.5522  0.8761  0.4816
19351SOL     OW58230   5.588   7.267   0.449 -0.1706  0.0342 -0.0341
19351SOL    HW158231   5.588   7.249   0.351 -0.2856  1.7234 -0.3804
19351SOL    HW258232   5.494   7.271   0.483 -0.1656  0.5337 -0.0778
19352SOL     OW58233   0.895   7.771   4.887 -0.8811  0.4084 -0.5864
19352SOL    HW158234   0.860   7.735   4.801 -0.3879 -0.5014 -0.4070
19352SOL    HW258235   0.823   7.827   4.931 -1.4036  0.2253 -1.1936
19353SOL     OW58236   7.030   7.747   0.067  0.2659 -0.0414  0.1936
19353SOL    HW158237   7.051   7.826   0.124 -1.6258 -0.2156  1.1991
19353SOL    HW258238   7.015   7.667   0.125  1.0211 -0.8849 -0.7375
19354SOL     OW58239   6.834   2.492   6.637 -0.3744  0.5390  0.0941
19354SOL    HW158240   6.842   2.483   6.538 -1.8714  0.5672 -0.0464
19354SOL    HW258241   6.839   2.402   6.680 -0.0874  0.4919 -0.0413
19355SOL     OW58242   1.344   1.646   8.644  0.4824 -0.1865 -0.1959
19355SOL    HW158243   1.361   1.740   8.615 -1.2896  0.5122  0.9035
19355SOL    HW258244   1.386   1.631   8.734 -2.3244  0.8048  1.4061
19356SOL     OW58245   6.550   5.732   2.925  0.5654  0.1927  0.1742
19356SOL    HW158246   6.469   5.720   2.982  0.5673  1.1841  0.3998
19356SOL    HW258247   6.619   5.784   2.975  2.0228 -2.0273  0.6105
19357SOL     OW58248   4.179   4.904   2.527 -0.0759 -0.2413  0.0097
19357SOL    HW158249   4.255   4.958   2.491 -0.1137 -0.6710 -0.7470
19357SOL    HW258250   4.093   4.954   2.515 -0.0020 -0.0685  0.1905
19358SOL     OW58251   3.187   2.831   1.347  0.4880 -0.1115  0.6413
19358SOL    HW158252   3.241   2.748   1.359  1.5104  0.2826 -0.9391
19358SOL    HW258253   3.160   2.839   1.251 -1.0158  0.5464  1.0882
19359SOL     OW58254   4.298   1.207   1.109  0.0946 -0.0056 -0.7099
19359SOL    HW158255   4.201   1.200   1.131  0.7139 -0.7972  2.2027
19359SOL    HW258256   4.319   1.301   1.081 -0.9172  1.2515  2.3299
19360SOL     OW58257   0.676   0.922   4.031  0.0055  0.3641  0.2496
19360SOL    HW158258   0.702   0.829   4.006 -0.1458  0.6094 -0.9122
19360SOL    HW258259   0.588   0.944   3.990  0.1614  1.1044  0.2907
19361SOL     OW58260   7.026   0.466   2.743 -0.1646 -0.1509  0.2057
19361SOL    HW158261   7.010   0.389   2.805 -0.7284 -1.4563 -1.4974
19361SOL    HW258262   7.114   0.508   2.766  1.1132 -2.5155  0.0016
19362SOL     OW58263   1.423   4.371   2.262  0.3048  0.0624  0.3384
19362SOL    HW158264   1.444   4.286   2.214 -1.4574 -0.5568  0.5907
19362SOL    HW258265   1.456   4.448   2.208 -0.4919 -0.6720 -1.2647
19363SOL     OW58266   2.080   2.431   4.227 -0.0470  0.3166  0.7045
19363SOL    HW158267   2.125   2.345   4.252  1.9098  1.0316 -0.1908
19363SOL    HW258268   1.991   2.437   4.274  0.5981 -1.3129  2.2469
19364SOL     OW58269   4.703   5.922   6.063  0.1041  0.7442  0.1937
19364SOL    HW158270   4.688   5.988   5.989 -1.5251  0.7733  0.5268
19364SOL    HW258271   4.687   5.830   6.029 -1.0524  0.7867  0.5970
19365SOL     OW58272   2.675   0.818   5.390  0.7105 -0.0509 -0.4752
19365SOL    HW158273   2.718   0.739   5.432 -0.9709 -0.8205 -0.1140
19365SOL    HW258274   2.746   0.882   5.358  2.1083  0.0195  2.4203
19366SOL     OW58275   1.775   2.454   5.512 -0.2510  0.8363 -0.3542
19366SOL    HW158276   1.779   2.459   5.612 -1.2997 -1.2401 -0.1663
19366SOL    HW258277   1.821   2.535   5.473  0.6085  1.4443  1.7699
19367SOL     OW58278   7.027   3.136   0.885 -0.0553 -0.1013 -0.6130
19367SOL    HW158279   7.069   3.124   0.975  1.8542 -0.7647 -1.5475
19367SOL    HW258280   7.006   3.046   0.846 -0.5782  0.1779 -0.9906
19368SOL     OW58281   1.066   1.224   4.909  0.4413 -0.4470  0.2077
19368SOL    HW158282   1.124   1.144   4.926  3.0855  1.5339  1.3432
19368SOL    HW258283   1.108   1.281   4.838 -0.5549  0.6625  0.4684
19369SOL     OW58284   3.673   2.230   2.521  0.4178  0.1765  0.0756
19369SOL    HW158285   3.735   2.162   2.482  0.4135  0.3771 -0.2944
19369SOL    HW258286   3.682   2.316   2.469 -0.1026  0.2352  0.0783
19370SOL     OW58287   4.005   6.049   5.843 -0.0493 -0.4178  0.4638
19370SOL    HW158288   4.037   5.989   5.769  1.1611  1.1121 -0.3102
19370SOL    HW258289   3.915   6.085   5.820 -0.0745 -0.6700  0.1590
19371SOL     OW58290   1.322   2.378   2.466  0.2284 -0.3495 -0.3175
19371SOL    HW158291   1.274   2.459   2.500 -0.0039  0.6519 -2.8080
19371SOL    HW258292   1.296   2.298   2.521 -1.6870  0.7530  0.4879
19372SOL     OW58293   6.072   2.461   8.723 -0.0876  0.2729  0.1072
19372SOL    HW158294   6.111   2.396   8.658 -0.2173 -1.5281  1.7391
19372SOL    HW258295   6.008   2.521   8.676  1.0205  0.1093 -1.7062
19373SOL     OW58296   1.204   0.130   1.429 -0.1802  0.3466  0.0502
19373SOL    HW158297   1.289   0.084   1.402 -1.2969 -1.4276 -0.6608
19373SOL    HW258298   1.162   0.080   1.504 -0.2551  1.6481  0.9067
19374SOL     OW58299   1.881   8.485   0.350 -0.3181  0.8182 -0.3049
19374SOL    HW158300   1.876   8.453   0.445 -0.5749  1.4147 -0.1118
19374SOL    HW258301   1.927   8.416   0.294 -0.4508  0.3209  0.1895
19375SOL     OW58302   2.701   4.943   0.723 -0.0760  0.3847 -0.4862
19375SOL    HW158303   2.780   5.003   0.714  1.0239 -1.2041 -2.3567
19375SOL    HW258304   2.617   4.995   0.705  0.5155  1.9969  1.0861
19376SOL     OW58305   3.882   7.943   5.963  0.1609  0.2762  0.2873
19376SOL    HW158306   3.918   7.873   6.025  1.6767  0.4681 -0.3552
19376SOL    HW258307   3.829   7.899   5.891  2.9096 -0.4956 -1.3861
19377SOL     OW58308   3.356   7.555   4.092  0.5628  0.2311 -0.3220
19377SOL    HW158309   3.291   7.546   4.167  1.0651 -0.1146  0.0819
19377SOL    HW258310   3.446   7.524   4.122  0.3629 -1.7846 -1.6325
19378SOL     OW58311   5.925   8.239   0.172 -0.9239 -0.0207  0.1766
19378SOL    HW158312   5.990   8.304   0.131 -0.1179 -2.0625 -2.0003
19378SOL    HW258313   5.972   8.186   0.243  0.0377 -1.7878 -1.6836
19379SOL     OW58314   4.309   3.432   5.602 -0.1879  0.4175 -0.0678
19379SOL    HW158315   4.288   3.517   5.650 -0.0535 -0.1126  0.9530
19379SOL    HW258316   4.320   3.358   5.668 -2.2769 -0.8476 -1.0199
19380SOL     OW58317   7.082   3.535   5.120  0.7165 -0.0514  0.1562
19380SOL    HW158318   7.091   3.603   5.048 -0.6531  1.2819  1.1803
19380SOL    HW258319   6.997   3.483   5.106  0.3925  0.2789  0.8321
19381SOL     OW58320   3.540   6.574   1.033  0.2498 -0.0658 -0.2483
19381SOL    HW158321   3.592   6.599   0.952 -0.9938  2.4618 -0.3638
19381SOL    HW258322   3.460   6.520   1.007  0.3922 -0.1075 -0.5954
19382SOL     OW58323   0.426   2.368   3.597 -0.4767 -0.1678 -0.1426
19382SOL    HW158324   0.475   2.297   3.649 -0.8171 -0.0815  0.3027
19382SOL    HW258325   0.387   2.328   3.514 -0.4681 -0.4478 -0.0124
19383SOL     OW58326   0.091   0.084   7.483  0.2724  0.0255 -0.3113
19383SOL    HW158327   0.026   0.129   7.422  1.9714  1.7794 -0.9309
19383SOL    HW258328   0.051   0.076   7.575 -1.0764  0.3619 -0.8485
19384SOL     OW58329   1.074   3.573   3.860  0.2990 -0.3297 -0.4069
19384SOL    HW158330   1.043   3.553   3.953 -0.4453 -0.0524 -0.5914
19384SOL    HW258331   1.001   3.553   3.795  1.5838 -2.9317 -1.2139
19385SOL     OW58332   8.725   7.903   5.720 -0.3896 -0.1053  0.0691
19385SOL    HW158333   8.627   7.887   5.732 -0.3714 -0.1891  0.1070
19385SOL    HW258334   8.757   7.963   5.794 -0.8005  1.5031 -0.9979
19386SOL     OW58335   5.705   4.187   8.132 -0.1079  0.0438 -0.2916
19386SOL    HW158336   5.642   4.147   8.065  0.7467  0.4088 -1.3590
19386SOL    HW258337   5.690   4.286   8.136  0.4855  0.1558 -0.6747
19387SOL     OW58338   7.002   8.656   1.950 -0.4482 -0.2215 -0.6008
19387SOL    HW158339   7.082   8.599   1.967 -0.0040  0.2701 -1.0178
19387SOL    HW258340   6.970   8.642   1.856 -0.5849 -0.0903 -0.5745
19388SOL     OW58341   7.945   5.725   5.036  0.2007 -0.5764 -0.4720
19388SOL    HW158342   7.928   5.782   5.117  0.2875 -3.5638  1.8160
19388SOL    HW258343   7.870   5.660   5.025  1.6905 -2.3090 -0.8656
19389SOL     OW58344   0.639   8.529   2.653 -0.0032 -0.4731  0.5853
19389SOL    HW158345   0.632   8.513   2.555  2.6420  0.9379  0.0851
19389SOL    HW258346   0.592   8.613   2.677  0.6704  0.0155  0.2270
19390SOL     OW58347   0.820   1.598   0.739 -0.0363  0.1605 -0.2651
19390SOL    HW158348   0.819   1.684   0.688 -0.3899 -0.7569 -1.8806
19390SOL    HW258349   0.766   1.530   0.689 -1.6701 -0.3779  2.1149
19391SOL     OW58350   8.063   2.475   0.322 -0.3716 -0.1184 -0.0036
19391SOL    HW158351   8.132   2.405   0.342 -0.5014  0.0789  1.1895
19391SOL    HW258352   8.054   2.485   0.222 -0.6248 -2.0466 -0.1995
19392SOL     OW58353   6.605   0.294   1.937  0.0715  0.2250  0.2154
19392SOL    HW158354   6.638   0.378   1.980 -2.0554  1.5839 -0.6240
19392SOL    HW258355   6.643   0.215   1.985  1.5388  1.6323  1.5170
19393SOL     OW58356   7.457   1.408   5.484 -0.0762  0.4565 -0.2608
19393SOL    HW158357   7.358   1.421   5.483 -0.2482 -0.7932 -1.1065
19393SOL    HW258358   7.480   1.319   5.445  1.5604  1.8423 -2.7417
19394SOL     OW58359   2.193   6.066   3.384  0.1105  0.4475 -0.2016
19394SOL    HW158360   2.158   6.158   3.400 -0.2335  0.5490 -1.4608
19394SOL    HW258361   2.197   6.017   3.471 -1.2416  1.1111  0.2768
19395SOL     OW58362   8.689   8.398   1.566  0.2280 -0.1879  0.0674
19395SOL    HW158363   8.738   8.434   1.487  0.2095  0.8019  0.4979
19395SOL    HW258364   8.653   8.307   1.544  0.9908 -0.3075 -0.7489
19396SOL     OW58365   8.248   6.410   4.422  0.4272 -0.5389 -0.4139
19396SOL    HW158366   8.346   6.431   4.416  0.6699 -1.5506 -0.2724
19396SOL    HW258367   8.208   6.411   4.331  0.6031 -0.2776 -0.4900
19397SOL     OW58368   5.385   1.176   5.324  0.4101 -0.3589 -0.1413
19397SOL    HW158369   5.451   1.178   5.249  0.1626 -0.3214 -0.3609
19397SOL    HW258370   5.367   1.269   5.355  1.6587 -0.4645  0.9897
19398SOL     OW58371   4.937   1.683   6.504 -0.1590  0.4332 -0.5848
19398SOL    HW158372   4.856   1.688   6.563  0.4497 -0.1968  0.3225
19398SOL    HW258373   5.016   1.722   6.552  0.2241  0.4338 -1.2085
19399SOL     OW58374   0.658   2.135   8.323  0.0353 -0.2169  0.1270
19399SOL    HW158375   0.753   2.136   8.355 -0.3897  0.3092  1.4339
19399SOL    HW258376   0.655   2.163   8.227  1.0321  1.6269  0.5877
19400SOL     OW58377   3.484   6.442   4.288 -0.1412  0.3156  0.2448
19400SOL    HW158378   3.431   6.484   4.214 -0.0057  1.1939  0.6308
19400SOL    HW258379   3.568   6.495   4.303  0.9079 -1.0777 -0.3936
19401SOL     OW58380   4.812   2.967   8.114 -0.6512 -0.1790  0.2769
19401SOL    HW158381   4.893   3.027   8.116 -0.3378 -0.6053  0.7655
19401SOL    HW258382   4.778   2.960   8.021  1.3605 -1.9441 -0.4104
19402SOL     OW58383   3.092   2.742   2.023 -0.0604 -0.2798  0.0649
19402SOL    HW158384   3.123   2.745   2.119 -0.8963  0.4751  0.3251
19402SOL    HW258385   3.049   2.829   2.000  1.2394  0.0140 -1.3954
19403SOL     OW58386   8.419   2.942   8.442 -0.1634 -0.5830 -0.3205
19403SOL    HW158387   8.377   2.896   8.520  0.3384 -0.3913  0.0643
19403SOL    HW258388   8.374   3.030   8.426 -1.3608 -1.3270 -1.2725
19404SOL     OW58389   7.997   0.151   5.624  0.3000  0.0371  0.2254
19404SOL    HW158390   8.085   0.120   5.661 -0.0134 -0.7746  0.3059
19404SOL    HW258391   7.999   0.143   5.525 -0.4035 -1.9959  0.3333
19405SOL     OW58392   1.060   3.009   7.173 -0.2371  0.2112 -0.0125
19405SOL    HW158393   1.041   3.042   7.265 -0.0476  1.7002 -0.4765
19405SOL    HW258394   1.154   3.033   7.148 -0.3238 -0.0708 -0.6308
19406SOL     OW58395   6.905   4.212   6.078  0.2627 -0.5575 -0.2177
19406SOL    HW158396   6.886   4.114   6.089 -3.3990  0.0684  0.2300
19406SOL    HW258397   6.877   4.241   5.987 -0.8821  0.4471  0.4274
19407SOL     OW58398   7.509   0.694   0.943  0.3730 -0.4320 -0.1095
19407SOL    HW158399   7.497   0.609   0.892  0.7678 -1.2099  1.0636
19407SOL    HW258400   7.425   0.713   0.994 -0.9112  1.5505 -2.7053
19408SOL     OW58401   5.870   7.391   8.190 -0.0632 -0.5608 -0.5625
19408SOL    HW158402   5.933   7.327   8.148  0.0400 -0.1904 -0.9815
19408SOL    HW258403   5.776   7.370   8.163  0.1107  0.5020 -2.1151
19409SOL     OW58404   0.861   7.067   5.591  0.0746  0.4786  0.0781
19409SOL    HW158405   0.820   7.138   5.649 -3.1274 -0.8318 -0.3853
19409SOL    HW258406   0.796   7.042   5.519  0.7716 -3.3542  0.5845
19410SOL     OW58407   5.574   8.840   0.944 -0.4206 -0.2233 -0.6327
19410SOL    HW158408   5.628   8.803   0.869 -1.4154  1.0981 -2.0468
19410SOL    HW258409   5.587   8.939   0.950 -1.5746 -0.0830 -0.1022
19411SOL     OW58410   1.019   3.767   7.022 -0.4022  0.0869  0.1758
19411SOL    HW158411   1.024   3.691   7.087 -1.5611 -0.8654 -0.7883
19411SOL    HW258412   0.986   3.849   7.069  2.5083  0.5654  1.6286
19412SOL     OW58413   0.118   3.675   5.511  0.1031 -0.4152 -0.2487
19412SOL    HW158414   0.038   3.731   5.532 -0.9283 -1.9880  0.1254
19412SOL    HW258415   0.177   3.668   5.591 -0.5610 -1.1299  0.1840
19413SOL     OW58416   4.868   5.914   5.048  0.0664  0.6569  0.2501
19413SOL    HW158417   4.921   5.841   5.091 -0.3008 -0.0065 -0.4009
19413SOL    HW258418   4.799   5.874   4.987  0.3227  1.5529 -0.6574
19414SOL     OW58419   6.417   4.483   8.596 -0.1554  0.7502 -0.5363
19414SOL    HW158420   6.433   4.473   8.694 -0.7787 -2.1909 -0.6588
19414SOL    HW258421   6.480   4.551   8.559  0.1313  1.8850  1.8557
19415SOL     OW58422   2.650   7.317   6.219  0.1973 -0.3498 -0.2505
19415SOL    HW158423   2.640   7.407   6.177  0.5162 -0.0053  0.4012
19415SOL    HW258424   2.693   7.254   6.154 -1.1404 -0.3828 -1.1561
19416SOL     OW58425   5.888   1.431   8.609 -0.4112 -0.3634  0.0484
19416SOL    HW158426   5.892   1.333   8.630 -2.5329 -0.5167 -0.0458
19416SOL    HW258427   5.930   1.447   8.520 -0.5744 -1.3028 -0.2136
19417SOL     OW58428   1.554   1.522   7.714 -0.1602 -0.1926 -0.5209
19417SOL    HW158429   1.625   1.573   7.763  0.0864  0.3110 -1.3774
19417SOL    HW258430   1.470   1.522   7.768 -0.2268  1.3093 -0.5611
19418SOL     OW58431   4.273   3.401   7.959  0.4504 -0.4341 -0.5335
19418SOL    HW158432   4.246   3.468   7.890  0.5158  0.2383  0.0861
19418SOL    HW258433   4.237   3.311   7.934 -0.6861  0.0623 -0.7384
19419SOL     OW58434   1.626   5.434   6.510 -0.1978  0.0202 -0.5343
19419SOL    HW158435   1.617   5.369   6.435 -2.1193  1.4368 -1.6083
19419SOL    HW258436   1.593   5.392   6.595  0.3455 -1.0123 -0.8235
19420SOL     OW58437   3.208   8.497   8.394 -0.0214 -0.0817 -0.4062
19420SOL    HW158438   3.163   8.442   8.465  1.2542 -0.1411  0.3843
19420SOL    HW258439   3.307   8.497   8.409  0.1241  1.3376 -1.1773
19421SOL     OW58440   6.641   6.195   7.117 -0.0159 -0.2529 -0.3115
19421SOL    HW158441   6.699   6.132   7.065  0.2559  0.3981 -0.8075
19421SOL    HW258442   6.581   6.245   7.054  0.1012  0.3264  0.0268
19422SOL     OW58443   6.867   8.561   7.263 -0.1458  0.3360  0.3089
19422SOL    HW158444   6.916   8.648   7.256  1.4200 -0.5270  0.1241
19422SOL    HW258445   6.836   8.547   7.357 -0.5852  1.1600  0.2996
19423SOL     OW58446   7.554   1.822   1.292 -0.8288 -0.3368  0.5057
19423SOL    HW158447   7.632   1.800   1.350 -2.3110 -1.8880  2.0497
19423SOL    HW258448   7.507   1.737   1.267 -1.5879  0.5017 -1.0437
19424SOL     OW58449   1.933   6.214   4.519  0.0525 -0.1075  0.1750
19424SOL    HW158450   1.990   6.223   4.438  0.3740 -1.6522  0.1959
19424SOL    HW258451   1.836   6.221   4.494  0.1489 -0.6721 -0.3683
19425SOL     OW58452   1.725   8.741   6.082 -0.1998  0.4440  0.4563
19425SOL    HW158453   1.824   8.749   6.072 -0.0583 -0.8004  0.7686
19425SOL    HW258454   1.702   8.653   6.122 -1.5349  0.0712 -1.0263
19426SOL     OW58455   7.555   6.842   0.400  0.1849 -0.0806  0.3664
19426SOL    HW158456   7.584   6.772   0.465 -1.1222 -0.3297  0.7008
19426SOL    HW258457   7.548   6.930   0.447 -0.3845 -0.1839  0.4800
19427SOL     OW58458   4.407   8.631   6.482 -0.1387  0.4322  0.5990
19427SOL    HW158459   4.461   8.556   6.520 -0.3023  0.3830  0.7373
19427SOL    HW258460   4.382   8.609   6.388  2.0992  1.5120 -0.3002
19428SOL     OW58461   0.049   0.932   4.690  0.4779 -0.0355  0.1068
19428SOL    HW158462   0.082   0.888   4.606 -2.0749 -0.8888 -0.5265
19428SOL    HW258463   0.029   1.028   4.672  1.0876  0.0895  0.0785
19429SOL     OW58464   5.107   5.393   5.588 -0.2868 -0.4153  0.2236
19429SOL    HW158465   5.083   5.419   5.682 -0.8893 -0.7573  0.1651
19429SOL    HW258466   5.112   5.293   5.582 -1.8286 -0.4658 -0.4918
19430SOL     OW58467   6.290   6.673   5.646 -0.3348 -0.2248 -0.1693
19430SOL    HW158468   6.378   6.629   5.634  0.2556  1.1665 -1.2241
19430SOL    HW258469   6.225   6.638   5.579 -0.9217 -1.9443  1.2106
19431SOL     OW58470   3.310   3.531   4.632 -0.5365 -0.3407 -0.1246
19431SOL    HW158471   3.347   3.619   4.603  3.4045 -1.9764 -0.7877
19431SOL    HW258472   3.235   3.545   4.696 -1.8824  3.3919 -2.2344
19432SOL     OW58473   0.619   0.694   8.596  0.2352  0.2159 -0.1141
19432SOL    HW158474   0.576   0.707   8.507 -0.0681 -0.7254 -0.1073
19432SOL    HW258475   0.712   0.660   8.583 -0.0060 -0.4666 -0.0576
19433SOL     OW58476   6.584   7.417   0.564  0.3599 -0.4744 -0.1145
19433SOL    HW158477   6.515   7.344   0.576 -2.0968  1.6387 -0.4889
19433SOL    HW258478   6.586   7.474   0.646  3.9495 -2.1584  1.1432
19434SOL     OW58479   3.746   0.312   4.913  0.1643 -0.2099  0.2077
19434SOL    HW158480   3.716   0.229   4.960  1.1228 -0.2871  0.7161
19434SOL    HW258481   3.843   0.304   4.891  0.5317  1.1962  1.1974
19435SOL     OW58482   1.810   1.145   6.066  0.0132  0.9179 -0.3300
19435SOL    HW158483   1.893   1.091   6.054  0.9073  2.3156 -0.5970
19435SOL    HW258484   1.789   1.193   5.981 -1.0689  0.6175 -0.2554
19436SOL     OW58485   3.138   7.196   0.019 -0.7366  0.0334 -0.1000
19436SOL    HW158486   3.195   7.132  -0.032  2.2896  2.3748  0.0945
19436SOL    HW258487   3.128   7.163   0.113  0.5583 -0.3208 -0.0643
19437SOL     OW58488   0.948   2.740   3.564 -0.1867 -0.5915  0.1449
19437SOL    HW158489   1.026   2.762   3.504 -0.8193 -0.0795 -0.5088
19437SOL    HW258490   0.911   2.650   3.538 -0.3293 -0.4636 -0.1029
19438SOL     OW58491   7.492   5.854   0.783  0.0594  0.0874  0.5759
19438SOL    HW158492   7.576   5.891   0.745 -0.5339  0.2711 -0.5967
19438SOL    HW258493   7.482   5.884   0.878  0.8444  0.8189  0.4370
19439SOL     OW58494   1.058   4.386   4.577  0.4415  0.0404 -0.5968
19439SOL    HW158495   1.017   4.360   4.489  1.0302  0.3446 -0.9688
19439SOL    HW258496   1.122   4.461   4.563 -0.5078  1.0578  0.3251
19440SOL     OW58497   7.013   1.001   7.811 -1.0153  0.3900 -0.1303
19440SOL    HW158498   7.065   1.015   7.727 -2.1504 -0.6093 -1.0340
19440SOL    HW258499   6.948   0.926   7.799 -1.7441  0.7192  1.3971
19441SOL     OW58500   5.311   2.454   4.822 -0.0185 -0.0642  0.5745
19441SOL    HW158501   5.256   2.394   4.880  0.3540  0.5895  1.6266
19441SOL    HW258502   5.380   2.499   4.877  0.4686  0.4412 -0.4246
19442SOL     OW58503   3.008   4.280   3.560  0.1866 -1.0685 -0.6211
19442SOL    HW158504   3.009   4.259   3.462 -0.8065 -0.3168 -0.8033
19442SOL    HW258505   2.929   4.236   3.603 -0.6430  0.3857 -0.5873
19443SOL     OW58506   7.206   1.863   3.504 -0.6856  0.3948 -0.7293
19443SOL    HW158507   7.237   1.812   3.584 -2.8530  0.4894  0.2614
19443SOL    HW258508   7.230   1.813   3.421  2.7547  0.9101 -0.1792
19444SOL     OW58509   5.331   2.230   4.353 -0.0702 -0.2973  0.1220
19444SOL    HW158510   5.239   2.268   4.345 -0.0260  0.2623  1.8206
19444SOL    HW258511   5.361   2.234   4.449  2.2105  0.7376 -0.5490
19445SOL     OW58512   3.534   5.586   4.472 -0.1679 -0.3797  0.6200
19445SOL    HW158513   3.453   5.633   4.509 -1.9599 -3.0464  0.3694
19445SOL    HW258514   3.613   5.605   4.530 -1.2628  1.2459  1.6591
19446SOL     OW58515   7.327   3.839   2.144 -0.5010 -0.0968 -0.3961
19446SOL    HW158516   7.390   3.769   2.177 -1.6786 -1.0032 -0.0071
19446SOL    HW258517   7.378   3.910   2.095  0.9126 -0.3267  0.6979
19447SOL     OW58518   5.828   3.405   1.617  0.1520 -0.1086  0.0973
19447SOL    HW158519   5.791   3.489   1.577  1.3014 -0.2948 -1.4594
19447SOL    HW258520   5.771   3.327   1.591 -0.4622  0.0606  0.8809
19448SOL     OW58521   8.427   0.488   0.469  0.5410 -0.3195 -0.1811
19448SOL    HW158522   8.488   0.409   0.466  1.1648  0.1489 -0.1632
19448SOL    HW258523   8.343   0.468   0.419  0.6855 -0.9968 -0.1582
19449SOL     OW58524   6.343   6.386   8.700  0.5593  0.1096  0.2359
19449SOL    HW158525   6.319   6.429   8.787  0.5665 -0.3946  0.4896
19449SOL    HW258526   6.376   6.293   8.717  0.1837 -0.1316 -0.3404
19450SOL     OW58527   1.794   1.271   5.490  0.0899 -0.1438 -0.0221
19450SOL    HW158528   1.810   1.295   5.394 -0.1735 -0.6397 -0.1891
19450SOL    HW258529   1.839   1.184   5.510 -0.2048 -0.2475  0.1911
19451SOL     OW58530   3.168   6.266   5.793  0.4128 -0.0698 -0.0915
19451SOL    HW158531   3.181   6.314   5.706 -0.1550 -0.2877 -0.2969
19451SOL    HW258532   3.257   6.253   5.837  0.8115 -0.7426 -1.0618
19452SOL     OW58533   0.849   2.605   0.855 -0.2698  0.1953 -0.0949
19452SOL    HW158534   0.863   2.616   0.953 -1.8156 -2.0451  0.4748
19452SOL    HW258535   0.789   2.678   0.822 -1.4783 -0.2095  1.1087
19453SOL     OW58536   0.867   2.260   0.378  0.4845 -0.0383 -0.3206
19453SOL    HW158537   0.899   2.248   0.472 -0.8057  0.6303  0.2372
19453SOL    HW258538   0.806   2.339   0.373 -2.4357 -2.1580 -0.9076
19454SOL     OW58539   7.116   6.942   0.643  0.1388 -0.1256 -0.4398
19454SOL    HW158540   7.179   6.889   0.586  0.0095 -0.3247 -0.3983
19454SOL    HW258541   7.023   6.931   0.608 -0.0515 -0.8716  0.2673
19455SOL     OW58542   0.728   1.481   2.395 -0.2465  0.4673  0.4381
19455SOL    HW158543   0.644   1.535   2.396 -0.2407  0.4787  1.4939
19455SOL    HW258544   0.709   1.389   2.428 -0.0191  0.1763 -0.2164
19456SOL     OW58545   7.596   6.115   3.552  0.6902  0.5530 -0.3761
19456SOL    HW158546   7.653   6.064   3.616 -0.0759  1.2763  0.9401
19456SOL    HW258547   7.500   6.107   3.579  0.4119  1.3631 -1.0810
19457SOL     OW58548   4.862   4.898   8.451 -0.7218 -0.1544 -0.4485
19457SOL    HW158549   4.939   4.939   8.500 -0.4784 -0.5291 -0.5096
19457SOL    HW258550   4.866   4.799   8.460 -0.9879 -0.1961 -0.7629
19458SOL     OW58551   7.795   2.385   7.162  0.0207 -0.0750 -0.1716
19458SOL    HW158552   7.784   2.378   7.063  0.0880  2.6234 -0.4493
19458SOL    HW258553   7.728   2.327   7.208 -0.9309 -0.3101 -1.7969
19459SOL     OW58554   2.617   8.193   1.939 -0.4971  0.5744 -0.1699
19459SOL    HW158555   2.532   8.201   1.888 -1.1871  0.1896  0.8946
19459SOL    HW258556   2.626   8.100   1.974 -0.2134  0.9223  0.7019
19460SOL     OW58557   5.440   8.785   4.207  0.2459  0.2599  0.0189
19460SOL    HW158558   5.528   8.829   4.227  0.3067 -0.0046  0.3581
19460SOL    HW258559   5.432   8.701   4.261 -0.1774  0.2359 -0.0768
19461SOL     OW58560   7.599   4.479   8.810 -0.3913  0.7080  0.0540
19461SOL    HW158561   7.597   4.565   8.861 -1.7262  1.0245 -0.4878
19461SOL    HW258562   7.578   4.403   8.872  1.3835  0.6540  0.6675
19462SOL     OW58563   4.490   6.932   1.555 -0.5796 -0.7177 -0.6684
19462SOL    HW158564   4.400   6.938   1.512 -0.4495  0.0046 -0.8569
19462SOL    HW258565   4.550   7.003   1.517 -0.1210 -0.7867 -0.0950
19463SOL     OW58566   4.431   2.062   1.738  0.3319  0.1504  0.7130
19463SOL    HW158567   4.462   1.970   1.716 -1.0942 -0.5496  1.4734
19463SOL    HW258568   4.348   2.056   1.794 -1.6550  1.8934 -1.8298
19464SOL     OW58569   1.373   8.128   1.397  0.3687  0.0178  0.6933
19464SOL    HW158570   1.368   8.052   1.332 -1.3096 -1.1879  2.1216
19464SOL    HW258571   1.375   8.214   1.347  1.0296 -0.9112 -0.9693
19465SOL     OW58572   5.804   7.701   7.476  0.1565  0.2071  0.6245
19465SOL    HW158573   5.890   7.652   7.494  0.1576 -0.4821 -1.0316
19465SOL    HW258574   5.821   7.773   7.408 -0.2937  1.0577  1.3998
19466SOL     OW58575   5.554   2.490   2.698  0.3355 -0.3135  0.0380
19466SOL    HW158576   5.649   2.494   2.728  0.2476 -0.0791  0.2824
19466SOL    HW258577   5.534   2.567   2.637  0.6173 -0.9896 -0.9394
19467SOL     OW58578   6.487   6.976   0.224  0.7199  0.1687  0.2282
19467SOL    HW158579   6.413   7.031   0.263 -0.1080  0.9272 -2.2339
19467SOL    HW258580   6.525   7.022   0.144  0.8967 -2.2062 -1.1485
19468SOL     OW58581   5.465   6.752   2.762  0.3093 -0.4978  0.4083
19468SOL    HW158582   5.504   6.766   2.853  0.6342  0.6251  0.1181
19468SOL    HW258583   5.412   6.667   2.761 -0.5587 -0.0165  1.9237
19469SOL     OW58584   5.735   8.654   1.097  0.4251  0.5224 -0.3219
19469SOL    HW158585   5.671   8.699   1.035 -0.3157  1.2370  0.9162
19469SOL    HW258586   5.726   8.555   1.088 -0.1590  0.6152 -0.8623
19470SOL     OW58587   1.113   2.996   3.863  0.2234 -0.7591 -0.0187
19470SOL    HW158588   1.040   2.928   3.851 -0.3209 -0.2020  0.1178
19470SOL    HW258589   1.141   3.030   3.773 -1.4477  0.8661  0.0052
19471SOL     OW58590   2.098   3.558   8.811  0.3415 -0.8712 -0.0578
19471SOL    HW158591   2.187   3.524   8.842  0.7930 -0.0527 -0.4359
19471SOL    HW258592   2.092   3.551   8.711  0.6807  0.6751 -0.2107
19472SOL     OW58593   7.079   2.326   4.519  0.1967 -0.3259 -0.6227
19472SOL    HW158594   7.002   2.377   4.479  0.2702 -0.0426 -0.4047
19472SOL    HW258595   7.104   2.366   4.607  0.8335 -0.1950 -0.8596
19473SOL     OW58596   1.186   7.354   3.726  0.9644 -0.3842 -0.1971
19473SOL    HW158597   1.250   7.278   3.717 -0.0979 -1.2729 -0.4537
19473SOL    HW258598   1.099   7.330   3.682 -0.1618  0.0694  1.6807
19474SOL     OW58599   3.800   3.590   3.603 -0.4484 -0.1746  0.0254
19474SOL    HW158600   3.778   3.495   3.624 -0.4252 -0.9247 -2.9343
19474SOL    HW258601   3.715   3.642   3.594 -0.5544 -0.4434 -0.5351
19475SOL     OW58602   4.334   2.756   8.311  0.3770  0.1586 -0.0878
19475SOL    HW158603   4.387   2.689   8.260 -0.6834 -1.4127  0.7820
19475SOL    HW258604   4.383   2.780   8.395  0.8926  0.7086 -0.5411
19476SOL     OW58605   1.984   4.016   2.980 -0.8463 -0.1085  0.1138
19476SOL    HW158606   2.082   4.005   2.960 -0.7454 -0.4688  0.7700
19476SOL    HW258607   1.950   3.931   3.021 -1.7834 -0.5351 -1.4546
19477SOL     OW58608   6.820   1.776   2.765 -0.1171  0.1841  0.6935
19477SOL    HW158609   6.862   1.853   2.813  1.3402 -0.6489  0.8021
19477SOL    HW258610   6.891   1.714   2.732 -1.2057 -0.4425 -0.5562
19478SOL     OW58611   6.364   0.932   0.467  0.7342 -0.1825  0.3880
19478SOL    HW158612   6.348   0.885   0.381 -1.1699  0.5199  0.3096
19478SOL    HW258613   6.459   0.963   0.471  1.1123 -1.0715 -1.0037
19479SOL     OW58614   2.506   4.662   0.447 -0.1151 -0.2739  0.3734
19479SOL    HW158615   2.463   4.572   0.436 -0.8849 -0.0096  1.0968
19479SOL    HW258616   2.531   4.675   0.543  1.4451 -0.3401  0.0086
19480SOL     OW58617   5.314   2.189   7.326 -0.5235 -0.2437  0.8518
19480SOL    HW158618   5.318   2.101   7.278 -1.0179  0.2448 -0.1284
19480SOL    HW258619   5.324   2.174   7.424  1.5004 -1.1813  0.5439
19481SOL     OW58620   3.847   4.903   2.789  0.2299 -0.2122  0.4599
19481SOL    HW158621   3.836   4.941   2.881  0.0788  1.2143 -0.1175
19481SOL    HW258622   3.923   4.838   2.788  0.3682 -0.0796  1.5451
19482SOL     OW58623   2.806   4.249   3.295  0.2329 -0.0577  0.2440
19482SOL    HW158624   2.889   4.257   3.240  0.2845 -0.5948  0.2423
19482SOL    HW258625   2.733   4.301   3.251 -0.0123 -1.3335 -0.9009
19483SOL     OW58626   7.337   8.456   1.102  0.2716  0.1806  0.2153
19483SOL    HW158627   7.401   8.527   1.132  0.0341  1.4184 -1.9437
19483SOL    HW258628   7.389   8.377   1.068  0.6231  0.4938  0.0166
19484SOL     OW58629   8.806   5.755   8.720  0.1933 -0.2153 -0.2311
19484SOL    HW158630   8.853   5.709   8.645 -0.2747  2.6956 -2.5299
19484SOL    HW258631   8.870   5.774   8.794  1.4576 -0.5464 -1.2115
19485SOL     OW58632   4.787   3.975   0.552 -0.0279 -0.0305 -0.2596
19485SOL    HW158633   4.839   4.014   0.628 -0.1940  1.1880 -0.7392
19485SOL    HW258634   4.828   4.003   0.466 -1.4473  0.9628 -0.6495
19486SOL     OW58635   4.829   1.101   6.484 -0.3706  0.1119 -0.0753
19486SOL    HW158636   4.814   1.196   6.514  0.5982  0.7212 -1.4032
19486SOL    HW258637   4.926   1.088   6.464 -0.6691 -0.8297 -0.9775
19487SOL     OW58638   0.937   4.111   3.286 -0.1921 -0.1977 -0.4117
19487SOL    HW158639   0.849   4.115   3.238 -0.4641 -0.0423  0.0925
19487SOL    HW258640   1.006   4.070   3.226 -0.4938  0.1165 -0.9803
19488SOL     OW58641   7.304   4.977   7.856  0.6804  0.0179  0.2019
19488SOL    HW158642   7.210   4.961   7.827  0.3986  1.2503  0.3988
19488SOL    HW258643   7.319   4.932   7.945 -0.2996  1.3304  1.0737
19489SOL     OW58644   2.289   0.041   1.722 -0.1438  0.6663  0.1632
19489SOL    HW158645   2.309  -0.034   1.785  0.3577  0.9760  0.3724
19489SOL    HW258646   2.198   0.027   1.682  0.1759 -0.3597 -0.2378
19490SOL     OW58647   0.873   0.159   0.268 -0.4532  0.3916 -0.0796
19490SOL    HW158648   0.813   0.080   0.280 -0.9088  0.4174 -1.8188
19490SOL    HW258649   0.893   0.171   0.170  4.0904 -0.8549  0.4386
19491SOL     OW58650   4.942   8.090   5.903  0.7040  0.3039 -0.1408
19491SOL    HW158651   4.942   8.117   6.000  0.2191  0.9522 -0.3123
19491SOL    HW258652   4.854   8.112   5.863  1.4364  1.5819 -1.1377
19492SOL     OW58653   3.411   0.700   0.318  0.1120  0.1657  0.2909
19492SOL    HW158654   3.393   0.770   0.387 -0.0831  0.1850  0.2193
19492SOL    HW258655   3.344   0.626   0.326  0.8620 -0.4688  0.9698
19493SOL     OW58656   0.189   5.956   6.874  0.7474  0.2286  0.0087
19493SOL    HW158657   0.233   5.899   6.805  0.5489 -1.0919  0.9409
19493SOL    HW258658   0.252   5.971   6.950  0.3721  0.2531  0.3172
19494SOL     OW58659   6.570   8.086   6.455 -0.2938 -0.0149 -0.3127
19494SOL    HW158660   6.519   8.055   6.375 -0.4693 -0.1403 -0.1526
19494SOL    HW258661   6.520   8.159   6.502 -1.1344 -1.2368  0.7682
19495SOL     OW58662   0.348   3.375   0.007  0.1095 -0.3224  1.0855
19495SOL    HW158663   0.326   3.467  -0.025  1.9877 -0.2727 -0.2089
19495SOL    HW258664   0.277   3.344   0.071 -0.5501  2.0079  1.5699
19496SOL     OW58665   1.595   0.221   1.266 -0.6239 -0.1553 -0.3886
19496SOL    HW158666   1.619   0.261   1.355 -1.5822  0.9509 -0.6045
19496SOL    HW258667   1.563   0.127   1.280  1.9115 -1.0385  0.0907
19497SOL     OW58668   6.850   1.919   2.426  0.5004 -0.0137  0.5335
19497SOL    HW158669   6.762   1.905   2.472  0.4599 -2.8276 -0.2156
19497SOL    HW258670   6.923   1.875   2.480  0.6381 -2.1953 -1.2745
19498SOL     OW58671   1.678   8.777   6.726  0.2744  0.2267  0.1122
19498SOL    HW158672   1.744   8.852   6.716  0.7753 -0.0116  1.4309
19498SOL    HW258673   1.666   8.756   6.823  0.0705 -1.3350 -0.2330
19499SOL     OW58674   1.696   8.555   3.171 -0.1005  0.5240  0.5131
19499SOL    HW158675   1.614   8.510   3.208  0.0749 -0.6574 -0.4425
19499SOL    HW258676   1.668   8.624   3.105 -0.3431 -0.1507 -0.1098
19500SOL     OW58677   6.721   1.677   5.562  0.2660  0.4184  0.0080
19500SOL    HW158678   6.686   1.634   5.478  0.3879 -0.9858  0.6459
19500SOL    HW258679   6.766   1.763   5.539 -2.6066  1.7936 -0.9745
19501SOL     OW58680   8.326   3.867   1.922 -0.3333  0.0607 -0.6904
19501SOL    HW158681   8.321   3.935   1.995 -1.0700 -0.6547 -0.0518
19501SOL    HW258682   8.325   3.913   1.833  1.2331  0.9867 -0.2742
19502SOL     OW58683   6.851   4.773   6.853 -0.3878  0.1049  0.3868
19502SOL    HW158684   6.911   4.696   6.829  0.1800  1.2122 -2.0130
19502SOL    HW258685   6.901   4.859   6.844 -2.2545  1.0897 -1.8284
19503SOL     OW58686   6.165   0.525   4.591  0.0846  0.0323  0.0734
19503SOL    HW158687   6.206   0.485   4.674  1.7083 -0.0846 -0.7334
19503SOL    HW258688   6.108   0.603   4.617  0.9783  0.3273  1.2745
19504SOL     OW58689   8.369   5.390   7.500  0.5394 -0.0052  0.5854
19504SOL    HW158690   8.307   5.465   7.522 -0.1282  0.1315 -1.5310
19504SOL    HW258691   8.455   5.427   7.464 -0.0666 -0.1877 -1.1679
19505SOL     OW58692   2.322   5.928   1.455 -0.1128  0.2706  0.2068
19505SOL    HW158693   2.291   6.021   1.434 -1.3082 -0.1273  0.1341
19505SOL    HW258694   2.416   5.931   1.488  0.3879  1.3495 -1.2103
19506SOL     OW58695   0.527   8.254   8.532  0.1739 -0.1453  0.3543
19506SOL    HW158696   0.557   8.160   8.548  0.8435 -0.0989 -0.5903
19506SOL    HW258697   0.460   8.255   8.458  0.7158  0.1934 -0.1411
19507SOL     OW58698   6.750   1.068   8.595 -0.2544 -0.4178 -0.1318
19507SOL    HW158699   6.777   1.141   8.658 -0.4689 -2.6886  2.8007
19507SOL    HW258700   6.806   1.072   8.513  1.0955  1.7868  0.8079
19508SOL     OW58701   6.944   4.995   2.839  0.0859 -0.0652  0.1658
19508SOL    HW158702   7.002   5.057   2.786  0.1944 -0.4136 -0.1237
19508SOL    HW258703   6.853   5.036   2.850  0.3732  0.4684  0.5951
19509SOL     OW58704   1.396   2.901   2.796 -0.0607  0.3290 -0.1301
19509SOL    HW158705   1.455   2.977   2.766 -1.7958  1.5528 -0.6118
19509SOL    HW258706   1.302   2.933   2.802 -0.4866 -1.1125  2.2556
19510SOL     OW58707   8.230   6.373   1.036 -0.3240  0.1131  0.1810
19510SOL    HW158708   8.267   6.280   1.047 -0.9726 -0.0783  0.8170
19510SOL    HW258709   8.297   6.430   0.988  0.8541 -0.1872  1.3963
19511SOL     OW58710   2.952   0.369   0.544 -0.0794  0.7073 -0.5756
19511SOL    HW158711   2.891   0.348   0.621  0.3414 -1.2726 -0.7315
19511SOL    HW258712   2.905   0.349   0.458  0.7711 -0.9536 -0.6951
19512SOL     OW58713   6.167   3.157   5.479  0.0348  0.0997 -0.1601
19512SOL    HW158714   6.177   3.144   5.578  1.3908 -1.3727 -0.4541
19512SOL    HW258715   6.086   3.108   5.447  1.3525 -2.1941 -0.2108
19513SOL     OW58716   4.750   0.740   8.848 -0.5405 -0.2805  0.3370
19513SOL    HW158717   4.717   0.814   8.789 -0.5619 -1.6809 -1.5148
19513SOL    HW258718   4.842   0.714   8.821 -1.8184 -3.3493 -1.6634
19514SOL     OW58719   5.481   4.357   4.132 -0.7741  0.3679  0.4082
19514SOL    HW158720   5.521   4.380   4.221 -1.1017  0.6694  0.4820
19514SOL    HW258721   5.438   4.267   4.136  0.4910 -0.2654  0.1308
19515SOL     OW58722   0.684   1.064   5.004 -0.6042  0.4329 -0.4131
19515SOL    HW158723   0.683   1.117   5.089 -1.8965 -0.4532  0.1579
19515SOL    HW258724   0.768   1.010   4.999 -0.6735  0.2328  0.4751
19516SOL     OW58725   5.145   6.703   3.039 -0.5155  0.1136 -0.0425
19516SOL    HW158726   5.081   6.738   2.970 -0.4737  0.8635  0.2842
19516SOL    HW258727   5.150   6.604   3.032  0.0833  0.2240 -1.6334
19517SOL     OW58728   7.924   7.045   3.368  0.0775 -0.0906 -0.0297
19517SOL    HW158729   7.854   6.988   3.326 -1.9559  1.6699  0.7766
19517SOL    HW258730   7.985   7.080   3.297 -0.4024 -0.9236 -0.8726
19518SOL     OW58731   8.461   6.225   8.250  0.4303 -0.5600 -0.3214
19518SOL    HW158732   8.435   6.292   8.181 -0.5338 -0.5445  0.0486
19518SOL    HW258733   8.432   6.134   8.220 -1.6455 -0.3483  0.8358
19519SOL     OW58734   7.900   3.128   5.089  0.4142 -0.1436 -0.1897
19519SOL    HW158735   7.839   3.166   5.018  0.1803  0.3633  0.2746
19519SOL    HW258736   7.993   3.159   5.072  0.2779  0.3858  0.0005
19520SOL     OW58737   7.644   8.259   4.033 -0.5655 -0.0105 -0.9067
19520SOL    HW158738   7.700   8.340   4.018  0.1825 -0.3001  0.2412
19520SOL    HW258739   7.702   8.181   4.054 -1.3901 -0.2134  0.7776
19521SOL     OW58740   5.600   4.200   2.798 -0.7087 -0.2346  0.1386
19521SOL    HW158741   5.512   4.215   2.752  0.2232  0.4855 -1.5091
19521SOL    HW258742   5.584   4.159   2.887 -2.7424  0.2087  0.0390
19522SOL     OW58743   2.468   7.198   6.862 -0.1871 -0.0642  0.1892
19522SOL    HW158744   2.538   7.258   6.823 -1.7432  0.3654 -2.0764
19522SOL    HW258745   2.481   7.105   6.828 -0.3379 -0.1290  0.3072
19523SOL     OW58746   3.217   2.806   3.152  0.1746  0.2899  0.2846
19523SOL    HW158747   3.142   2.745   3.177 -0.1583  0.1236 -1.0341
19523SOL    HW258748   3.204   2.838   3.058  1.6184  0.4769  0.1280
19524SOL     OW58749   6.500   8.312   2.885 -0.2867  0.0438 -0.7006
19524SOL    HW158750   6.432   8.251   2.924 -0.6263  0.5325 -0.5229
19524SOL    HW258751   6.592   8.280   2.909 -0.4834  0.6579  1.0221
19525SOL     OW58752   3.457   6.101   6.890 -0.3061  0.8245  0.4379
19525SOL    HW158753   3.430   6.016   6.935 -1.5812 -0.5407 -2.6596
19525SOL    HW258754   3.556   6.105   6.883 -0.2216 -0.3404  0.7593
19526SOL     OW58755   7.835   2.455   0.730 -0.3314 -0.5534 -0.3713
19526SOL    HW158756   7.840   2.465   0.631 -0.9976 -1.0784 -0.4706
19526SOL    HW258757   7.741   2.473   0.760  0.4424  2.4895  0.5317
19527SOL     OW58758   1.862   6.073   0.238 -0.1145 -0.7894  0.1374
19527SOL    HW158759   1.815   6.060   0.325  0.4504 -1.4572  0.3548
19527SOL    HW258760   1.854   5.990   0.182  0.1502 -0.6312 -0.1401
19528SOL     OW58761   3.215   1.543   1.505 -0.0831 -0.4425  0.6875
19528SOL    HW158762   3.309   1.576   1.508 -0.1552 -0.2169  3.4795
19528SOL    HW258763   3.214   1.446   1.482  0.4995  0.2251 -2.6700
19529SOL     OW58764   2.861   0.914   4.440 -0.2610  0.1887  0.6793
19529SOL    HW158765   2.888   0.825   4.402  2.1062  2.2894 -3.2261
19529SOL    HW258766   2.868   0.911   4.540  1.9052 -3.3365  0.5973
19530SOL     OW58767   5.571   2.631   4.665 -0.5510  0.4385  0.6398
19530SOL    HW158768   5.474   2.654   4.667 -1.0147 -1.4189  0.9815
19530SOL    HW258769   5.587   2.559   4.598  0.9032  1.8594 -0.6273
19531SOL     OW58770   2.925   1.261   4.924 -0.4770  0.0573 -0.1130
19531SOL    HW158771   2.847   1.238   4.864 -0.3569  1.0640 -0.6826
19531SOL    HW258772   2.905   1.346   4.973  1.0586  1.5443 -1.8697
19532SOL     OW58773   3.605   2.418   8.620 -1.1904  0.1953 -0.5249
19532SOL    HW158774   3.508   2.394   8.633 -0.5560 -2.3535 -0.0080
19532SOL    HW258775   3.649   2.348   8.564  0.1791  1.8547 -1.6205
19533SOL     OW58776   6.845   5.564   0.721 -0.6354  0.3093 -0.1340
19533SOL    HW158777   6.749   5.566   0.750 -0.9531  0.8234 -1.1640
19533SOL    HW258778   6.850   5.578   0.622  0.4334 -1.0310 -0.2927
19534SOL     OW58779   1.932   8.637   1.442 -0.2637  0.7553 -0.3036
19534SOL    HW158780   1.921   8.538   1.452  2.1816  0.4574  0.0667
19534SOL    HW258781   1.965   8.658   1.350  1.9215  0.8745  0.4396
19535SOL     OW58782   7.471   5.550   1.647 -0.2451 -0.4063  0.9216
19535SOL    HW158783   7.537   5.479   1.674  1.2728 -0.1150 -1.6584
19535SOL    HW258784   7.390   5.506   1.608  1.1055 -0.8728 -1.6092
19536SOL     OW58785   6.644   4.071   0.184 -0.2798 -0.4211  0.3217
19536SOL    HW158786   6.583   4.148   0.167 -0.8913 -1.0243 -0.2720
19536SOL    HW258787   6.696   4.088   0.268  0.2248  1.0217 -0.2421
19537SOL     OW58788   7.563   3.875   8.256  0.4343  0.2829  0.2496
19537SOL    HW158789   7.622   3.903   8.331  0.9211 -0.0544 -0.0029
19537SOL    HW258790   7.499   3.949   8.234 -0.5131 -0.0431  1.7747
19538SOL     OW58791   8.512   6.375   3.364  0.4106 -0.2375  0.6737
19538SOL    HW158792   8.522   6.471   3.337 -1.0305  0.1840  1.5511
19538SOL    HW258793   8.598   6.326   3.345  1.7367  1.5812  1.6377
19539SOL     OW58794   4.225   5.178   2.704 -0.1736  0.2325  0.3099
19539SOL    HW158795   4.128   5.155   2.690 -0.3381  1.1697 -0.1260
19539SOL    HW258796   4.267   5.197   2.616 -0.0173  1.5030  0.6507
19540SOL     OW58797   2.099   0.794   1.822  0.0553  0.1582  0.3016
19540SOL    HW158798   2.155   0.713   1.805 -1.8281 -1.8265  2.7582
19540SOL    HW258799   2.003   0.773   1.807 -0.7856  0.9671  3.6147
19541SOL     OW58800   1.735   1.794   8.683  0.0633  0.1327 -0.1393
19541SOL    HW158801   1.690   1.773   8.596 -1.4140  1.2519  0.3134
19541SOL    HW258802   1.714   1.722   8.750 -0.9658  0.5738  0.0250
19542SOL     OW58803   4.153   0.868   6.988 -0.3821  0.1065  0.1344
19542SOL    HW158804   4.232   0.902   6.936  0.0056  0.8585  1.1748
19542SOL    HW258805   4.070   0.911   6.954  0.0101  1.5189  0.8751
19543SOL     OW58806   8.548   8.403   2.216  0.4489  0.4115 -0.5768
19543SOL    HW158807   8.526   8.309   2.243  1.0906  0.7703  1.3232
19543SOL    HW258808   8.504   8.467   2.279  2.3438  1.2870 -0.0722
19544SOL     OW58809   7.772   4.948   7.480  0.5932 -0.1380 -0.0001
19544SOL    HW158810   7.842   5.001   7.431  0.0890 -0.0162 -0.6054
19544SOL    HW258811   7.729   5.005   7.549  1.4599 -0.3728  0.7514
19545SOL     OW58812   1.793   0.872   3.814  0.0011  0.1448  1.0014
19545SOL    HW158813   1.769   0.891   3.910  1.9074  1.9984  1.1824
19545SOL    HW258814   1.812   0.959   3.767 -0.5381 -0.7598 -0.9838
19546SOL     OW58815   5.189   6.757   6.925  0.1219 -0.3124  0.5954
19546SOL    HW158816   5.132   6.676   6.909  0.0225 -0.3767  1.2541
19546SOL    HW258817   5.271   6.730   6.976  2.7934 -0.9644 -3.5939
19547SOL     OW58818   0.353   8.325   4.982 -0.6188  0.5097  0.3085
19547SOL    HW158819   0.313   8.390   4.918 -2.0296 -0.3590  0.2729
19547SOL    HW258820   0.316   8.234   4.965 -1.0235  0.2469  2.3426
19548SOL     OW58821   0.944   7.836   6.158  0.2524  0.7020  0.0670
19548SOL    HW158822   1.014   7.854   6.089 -0.0434  1.0745 -0.1332
19548SOL    HW258823   0.960   7.893   6.238  0.3701  0.5483  0.1537
19549SOL     OW58824   3.501   7.364   0.097  0.4362  0.7482  0.0860
19549SOL    HW158825   3.565   7.288   0.100 -0.8723 -0.4103 -0.1408
19549SOL    HW258826   3.436   7.356   0.172 -0.2256  1.1544 -0.4321
19550SOL     OW58827   6.593   0.129   1.072 -0.2635  0.3095  0.4050
19550SOL    HW158828   6.571   0.110   1.168 -0.1736  0.6864  0.5001
19550SOL    HW258829   6.691   0.115   1.058 -0.0352  1.5579  0.6845
19551SOL     OW58830   8.038   1.599   5.710 -0.2062  0.0231  0.2860
19551SOL    HW158831   8.082   1.605   5.620 -0.4290 -0.3322  0.1526
19551SOL    HW258832   7.949   1.643   5.706 -1.5842 -2.6704 -0.5307
19552SOL     OW58833   4.204   7.595   1.939  0.9222 -0.3039  0.1134
19552SOL    HW158834   4.278   7.662   1.945  0.0283  0.8738 -1.3632
19552SOL    HW258835   4.193   7.565   1.844  0.1527 -1.2191  0.4689
19553SOL     OW58836   4.566   4.583   5.949  0.1292 -0.6066  0.4373
19553SOL    HW158837   4.620   4.667   5.953 -1.4210  0.4431  0.2806
19553SOL    HW258838   4.603   4.516   6.012  0.2458  0.9030  2.0405
19554SOL     OW58839   2.221   7.487   0.361  0.1088  0.0819 -0.2756
19554SOL    HW158840   2.264   7.404   0.396 -0.5277  0.1017  0.5824
19554SOL    HW258841   2.223   7.558   0.432  1.1772  1.0138 -1.1939
19555SOL     OW58842   2.472   0.184   6.407 -0.0811  0.7205  0.1500
19555SOL    HW158843   2.509   0.149   6.493  0.0843  0.3950 -0.0516
19555SOL    HW258844   2.406   0.257   6.426 -0.1138  0.5866  0.5553
19556SOL     OW58845   7.017   5.921   6.680  0.3927 -0.3916  0.5039
19556SOL    HW158846   6.998   5.988   6.752  0.4088 -1.3251  1.4141
19556SOL    HW258847   7.112   5.930   6.649  0.6703 -0.5709  1.2712
19557SOL     OW58848   4.215   3.695   0.331  0.8937  0.5199 -0.0484
19557SOL    HW158849   4.166   3.612   0.303  0.7877  0.9229 -1.0719
19557SOL    HW258850   4.186   3.721   0.424  0.8693 -0.5346  0.2557
19558SOL     OW58851   1.072   3.686   4.409  0.3046  0.3862 -0.4683
19558SOL    HW158852   1.065   3.592   4.375 -1.3515  0.5960 -0.7907
19558SOL    HW258853   1.134   3.689   4.488 -0.0481 -1.0739 -0.1120
19559SOL     OW58854   5.116   3.270   4.114  0.3101  0.4932  0.0522
19559SOL    HW158855   5.061   3.217   4.179  1.3481 -1.3547 -0.5103
19559SOL    HW258856   5.089   3.246   4.021  0.8833  0.8902 -0.2196
19560SOL     OW58857   7.064   7.344   2.937  0.1470 -0.3233 -0.1263
19560SOL    HW158858   7.058   7.393   3.024 -1.9547 -0.6896  0.0006
19560SOL    HW258859   7.126   7.392   2.875  0.4763  0.7935  1.0348
19561SOL     OW58860   3.214   4.357   1.112 -0.4090  0.3506 -0.0143
19561SOL    HW158861   3.263   4.423   1.056  0.8807  0.0931  0.7650
19561SOL    HW258862   3.118   4.355   1.086  0.1961 -0.0295 -2.4508
19562SOL     OW58863   4.765   5.561   0.292  0.0785  0.1475 -0.4866
19562SOL    HW158864   4.743   5.508   0.374  0.8834  0.0091 -0.3564
19562SOL    HW258865   4.855   5.536   0.259  0.6855  1.7710 -0.1451
19563SOL     OW58866   6.117   6.015   5.462 -0.0452 -0.1974 -0.5918
19563SOL    HW158867   6.155   5.982   5.548  0.8897  1.7273 -0.2043
19563SOL    HW258868   6.036   5.962   5.438  0.0624 -1.1924  1.1200
19564SOL     OW58869   8.591   1.531   0.834 -0.1955  0.1109  0.0314
19564SOL    HW158870   8.646   1.609   0.865 -0.5404  0.9879 -1.4660
19564SOL    HW258871   8.588   1.530   0.734  0.1371 -2.0868 -0.0191
19565SOL     OW58872   5.569   0.423   7.224  0.7058 -0.3636 -0.4878
19565SOL    HW158873   5.556   0.475   7.139  1.4152  0.4876 -0.0960
19565SOL    HW258874   5.496   0.447   7.288  0.5088 -0.5542 -0.6385
19566SOL     OW58875   3.907   1.861   5.992  0.4910  0.2736 -0.3582
19566SOL    HW158876   3.876   1.921   5.918  0.3380  0.5371 -0.0824
19566SOL    HW258877   3.969   1.792   5.955 -1.2586 -0.9572 -1.1216
19567SOL     OW58878   8.843   2.435   1.713 -0.2444 -0.4962 -0.3523
19567SOL    HW158879   8.889   2.513   1.670 -1.6794 -0.5541 -2.1395
19567SOL    HW258880   8.771   2.402   1.652  0.9358 -3.8550 -0.1128
19568SOL     OW58881   5.341   3.286   7.352 -0.0663  0.2931  0.6822
19568SOL    HW158882   5.431   3.297   7.309  1.0543 -1.2535  2.4250
19568SOL    HW258883   5.274   3.259   7.283  1.3780 -0.9167 -0.3309
19569SOL     OW58884   1.209   3.262   0.520 -0.0544  1.1871  0.2632
19569SOL    HW158885   1.297   3.214   0.524  0.3110  1.8357  0.0581
19569SOL    HW258886   1.211   3.329   0.446 -1.3521 -0.0256 -0.9291
19570SOL     OW58887   6.538   3.601   4.684 -0.2371  0.2915 -0.8980
19570SOL    HW158888   6.613   3.641   4.736 -0.4329 -0.8192  0.2953
19570SOL    HW258889   6.451   3.628   4.726 -0.5070  1.1275 -1.9469
19571SOL     OW58890   7.132   6.050   7.197 -0.4196 -0.4963 -0.0596
19571SOL    HW158891   7.147   6.010   7.288 -2.2245 -2.0522 -0.3769
19571SOL    HW258892   7.129   5.977   7.129 -0.1106  0.5610 -1.2266
19572SOL     OW58893   7.549   7.162   5.563  0.0577  0.3322 -0.0847
19572SOL    HW158894   7.619   7.136   5.629 -0.3739 -1.3977 -0.2607
19572SOL    HW258895   7.459   7.135   5.597 -0.2429  0.0711 -1.0476
19573SOL     OW58896   7.965   5.167   6.238 -0.0557 -0.4694 -0.2486
19573SOL    HW158897   7.892   5.235   6.239  2.1198  1.9942 -0.4406
19573SOL    HW258898   7.991   5.145   6.332  0.7194  0.7169 -0.1633
19574SOL     OW58899   5.825   5.210   6.346  0.2651  0.0663  0.2656
19574SOL    HW158900   5.839   5.304   6.377 -1.2150  0.2173  0.5429
19574SOL    HW258901   5.810   5.208   6.248 -2.2733  0.4593  0.5955
19575SOL     OW58902   3.450   0.653   6.336  0.4146 -0.7352  0.2309
19575SOL    HW158903   3.512   0.695   6.269  0.0071  0.2134  0.4322
19575SOL    HW258904   3.485   0.668   6.428 -0.0106 -0.3638  0.3334
19576SOL     OW58905   1.878   5.399   3.529  0.0139  0.6120  0.0174
19576SOL    HW158906   1.802   5.385   3.465 -1.4530  1.1628  1.5686
19576SOL    HW258907   1.921   5.311   3.550 -0.6541  0.1883 -0.3479
19577SOL     OW58908   6.120   3.649   6.064  0.0976  0.4762  0.2024
19577SOL    HW158909   6.162   3.720   6.121 -0.1043  0.6533  0.1347
19577SOL    HW258910   6.126   3.676   5.968  0.4446  0.1741  0.1388
19578SOL     OW58911   4.170   0.336   0.040 -0.8385  0.1014  0.4861
19578SOL    HW158912   4.183   0.435   0.043  1.8293 -0.2144  3.3207
19578SOL    HW258913   4.177   0.305  -0.055  1.1124  2.3300 -0.2050
19579SOL     OW58914   1.633   1.303   8.239 -0.5545  0.0622 -0.5599
19579SOL    HW158915   1.715   1.259   8.201 -0.7065  0.9993 -2.0583
19579SOL    HW258916   1.569   1.232   8.270  0.3948 -0.6975 -0.2743
19580SOL     OW58917   5.960   3.746   2.163 -0.5617 -0.4342  0.1765
19580SOL    HW158918   5.956   3.798   2.248  2.0951  0.2179  0.0110
19580SOL    HW258919   6.054   3.716   2.147 -1.5478 -3.2708 -0.9742
19581SOL     OW58920   0.916   3.569   1.532 -0.2801 -0.7881  0.2601
19581SOL    HW158921   0.940   3.578   1.435 -0.9056  0.1456  0.1769
19581SOL    HW258922   0.835   3.624   1.551 -0.0317 -0.7852  1.3656
19582SOL     OW58923   5.246   3.315   0.131  0.1073 -0.2839  0.0256
19582SOL    HW158924   5.265   3.223   0.097 -0.0728  0.0376 -0.9702
19582SOL    HW258925   5.297   3.382   0.077 -0.9448  0.3131 -0.2552
19583SOL     OW58926   4.530   6.975   7.135 -0.0032 -0.0415  0.2273
19583SOL    HW158927   4.559   7.054   7.080  1.1897 -0.9884 -0.5437
19583SOL    HW258928   4.432   6.960   7.122 -0.2298  1.2323  0.2997
19584SOL     OW58929   6.216   4.777   7.765 -0.4303  0.2208 -0.4772
19584SOL    HW158930   6.202   4.765   7.863 -2.2777  1.5978 -0.5215
19584SOL    HW258931   6.313   4.793   7.747 -0.0551 -0.1027  1.1039
19585SOL     OW58932   5.801   6.057   4.655  0.9374 -0.1671 -0.1611
19585SOL    HW158933   5.863   6.036   4.731  1.6550 -2.0938 -1.2091
19585SOL    HW258934   5.839   6.132   4.601  1.9289 -0.7315 -0.2727
19586SOL     OW58935   4.304   3.727   4.568  0.2089  0.2564  0.2096
19586SOL    HW158936   4.394   3.688   4.549 -0.1261 -1.0682  1.2545
19586SOL    HW258937   4.234   3.656   4.558 -0.6007  1.0001  0.5022
19587SOL     OW58938   1.253   4.776   7.016  0.0270  0.2834 -0.5911
19587SOL    HW158939   1.185   4.845   6.993  0.6560  0.5578 -1.7055
19587SOL    HW258940   1.321   4.770   6.943 -0.4806 -2.1174 -0.9828
19588SOL     OW58941   7.392   6.783   4.922  0.2929 -0.2608  0.0691
19588SOL    HW158942   7.470   6.845   4.928  0.6553 -0.6067 -0.7671
19588SOL    HW258943   7.307   6.835   4.932  0.5106  0.7031 -2.2672
19589SOL     OW58944   1.714   3.464   3.081  0.4362 -0.3971  0.0528
19589SOL    HW158945   1.808   3.445   3.109  0.8070  0.6512 -0.4396
19589SOL    HW258946   1.664   3.378   3.071  1.1263 -0.9241  1.0397
19590SOL     OW58947   4.995   7.440   8.709  0.0252 -0.4439  0.3354
19590SOL    HW158948   5.069   7.396   8.659  1.7831  0.4464  2.0393
19590SOL    HW258949   4.951   7.508   8.651  1.6813  0.2242 -0.1660
19591SOL     OW58950   4.906   0.606   1.138 -0.0201  0.1181 -0.1284
19591SOL    HW158951   4.895   0.706   1.133 -2.4946 -0.0597  0.6323
19591SOL    HW258952   4.885   0.567   1.048 -0.3045  0.1809 -0.0890
19592SOL     OW58953   7.313   5.335   6.843  0.0980  0.0851  0.3960
19592SOL    HW158954   7.318   5.429   6.810  1.1390  0.7833  2.3685
19592SOL    HW258955   7.279   5.334   6.937 -1.9765 -1.7322 -0.2921
19593SOL     OW58956   2.698   0.314   8.000 -0.7411 -0.7117 -0.1325
19593SOL    HW158957   2.607   0.273   7.989 -1.3545  0.7843 -1.0737
19593SOL    HW258958   2.706   0.353   8.091 -1.2979 -0.3002 -0.2530
19594SOL     OW58959   8.346   4.744   3.441 -0.0023 -0.0014 -0.1218
19594SOL    HW158960   8.380   4.832   3.408 -2.1341  2.0564  2.6235
19594SOL    HW258961   8.383   4.726   3.532 -1.2685 -0.8262  0.2607
19595SOL     OW58962   4.127   5.368   2.874  0.3906  0.1564  0.3096
19595SOL    HW158963   4.181   5.309   2.814  1.6902  0.4016  1.2027
19595SOL    HW258964   4.157   5.463   2.863 -0.1700  0.3557  0.4887
19596SOL     OW58965   5.083   0.592   4.854  0.1992  0.3664  0.1041
19596SOL    HW158966   5.097   0.497   4.825 -0.7763  0.0662  0.5834
19596SOL    HW258967   5.165   0.625   4.901  1.0922  0.2454 -1.3109
19597SOL     OW58968   4.159   5.787   4.898  0.2592  0.2598 -0.0731
19597SOL    HW158969   4.140   5.713   4.962  2.7419 -1.8515 -1.5476
19597SOL    HW258970   4.117   5.766   4.810  0.9716  0.5776 -0.4984
19598SOL     OW58971   0.798   0.138   7.572  0.3729  0.1124 -0.6690
19598SOL    HW158972   0.788   0.234   7.546  0.1624  0.2156 -0.2158
19598SOL    HW258973   0.751   0.080   7.506 -0.5380  0.4004 -0.2806
19599SOL     OW58974   5.565   0.909   1.303  0.0767  0.6597  0.3396
19599SOL    HW158975   5.479   0.952   1.330 -0.5140  0.1745 -0.6804
19599SOL    HW258976   5.597   0.949   1.218  0.2094  0.0007  0.0728
19600SOL     OW58977   0.447   6.578   0.922  0.7874  0.5824  0.4895
19600SOL    HW158978   0.381   6.503   0.915  0.7209  0.7347 -0.6024
19600SOL    HW258979   0.416   6.642   0.992  0.6901 -0.2425  1.2229
19601SOL     OW58980   6.859   2.318   1.586 -0.2246  0.3637  0.7079
19601SOL    HW158981   6.767   2.302   1.552 -0.3687  1.9600  0.2704
19601SOL    HW258982   6.868   2.280   1.678 -1.3532  0.3307  0.8129
19602SOL     OW58983   7.543   4.189   4.025  0.0224 -0.2066 -0.0599
19602SOL    HW158984   7.534   4.221   3.930 -0.0969 -1.2219 -0.4026
19602SOL    HW258985   7.458   4.208   4.074  0.4239  1.2035  0.1366
19603SOL     OW58986   4.063   0.925   3.315 -0.1315 -0.1643 -0.5846
19603SOL    HW158987   4.027   0.984   3.244 -0.4790 -1.8007 -1.8367
19603SOL    HW258988   4.092   0.838   3.275 -1.6824 -1.7304  1.4222
19604SOL     OW58989   3.539   3.316   4.786  0.2984 -0.0337 -0.1460
19604SOL    HW158990   3.474   3.240   4.779  0.8586 -0.6305  0.8180
19604SOL    HW258991   3.491   3.400   4.810 -0.2936 -0.1352 -0.9354
19605SOL     OW58992   4.822   5.997   0.373  0.2651  0.4135  0.9481
19605SOL    HW158993   4.875   6.009   0.289 -0.8100  1.3722  0.3835
19605SOL    HW258994   4.778   5.907   0.371 -0.2799  0.6828  0.1594
19606SOL     OW58995   2.350   3.551   0.024 -0.9306 -0.1221  0.0563
19606SOL    HW158996   2.395   3.620  -0.031 -0.3214 -1.0934 -0.6997
19606SOL    HW258997   2.418   3.488   0.061 -1.5943 -1.2949 -0.6569
19607SOL     OW58998   5.376   3.492   3.150  0.3676 -0.0441 -0.3321
19607SOL    HW158999   5.369   3.562   3.221 -0.5304 -0.1414 -0.3136
19607SOL    HW259000   5.398   3.404   3.192  0.9180  0.1048 -0.2963
19608SOL     OW59001   5.614   0.838   8.183  0.4696  0.1154  0.6646
19608SOL    HW159002   5.655   0.815   8.271 -0.7600 -1.2971  0.9215
19608SOL    HW259003   5.574   0.755   8.142  0.9445  0.7514 -1.1949
19609SOL     OW59004   6.575   7.149   6.025  0.3975  0.2247 -0.1786
19609SOL    HW159005   6.593   7.222   6.091  1.5956 -0.6755  0.5474
19609SOL    HW259006   6.517   7.079   6.066 -0.2742  0.4899 -0.6714
19610SOL     OW59007   2.857   5.845   0.708 -0.1210 -0.1678 -0.1930
19610SOL    HW159008   2.765   5.874   0.734  0.3859  2.3453 -0.9315
19610SOL    HW259009   2.920   5.859   0.784 -0.2502 -1.6072  0.2130
19611SOL     OW59010   4.614   3.098   1.955 -0.0992 -0.4777  0.4969
19611SOL    HW159011   4.702   3.118   1.910 -1.3344  1.8040 -1.1112
19611SOL    HW259012   4.578   3.011   1.920  0.5471 -0.4015 -0.3876
19612SOL     OW59013   3.604   8.779   4.515 -0.1020  0.1574  0.1740
19612SOL    HW159014   3.690   8.829   4.502 -0.3920  0.5395 -0.2922
19612SOL    HW259015   3.614   8.718   4.594  0.9359 -0.5758 -0.5005
19613SOL     OW59016   0.655   5.431   7.482 -0.2211  0.6781  0.3694
19613SOL    HW159017   0.625   5.376   7.560  0.4174  2.2762  1.7943
19613SOL    HW259018   0.659   5.373   7.400  0.5197 -1.4141  1.8026
19614SOL     OW59019   8.743   8.057   0.827 -0.1123 -0.4133 -0.1940
19614SOL    HW159020   8.732   8.015   0.738 -1.3927 -0.1232 -0.1970
19614SOL    HW259021   8.662   8.113   0.847 -0.4765 -1.5330  1.7069
19615SOL     OW59022   7.176   0.714   6.821 -0.1614 -0.1988  0.3615
19615SOL    HW159023   7.145   0.689   6.729  1.1882  0.6570 -0.3687
19615SOL    HW259024   7.100   0.710   6.884 -1.2031 -0.4943 -0.8714
19616SOL     OW59025   4.554   0.000   7.514 -0.3344  0.5039 -0.0422
19616SOL    HW159026   4.567   0.078   7.452 -0.4323 -1.5507 -2.8516
19616SOL    HW259027   4.498  -0.069   7.469  0.8700 -1.7980  1.7698
19617SOL     OW59028   2.814   7.962   0.959  0.1935 -0.0854 -0.3466
19617SOL    HW159029   2.884   7.999   1.020 -0.8270 -1.2967  1.7115
19617SOL    HW259030   2.827   7.863   0.950 -1.8234 -0.5527  1.0581
19618SOL     OW59031   2.406   7.871   1.129  0.3420  0.3895  0.7080
19618SOL    HW159032   2.458   7.933   1.070 -0.2489 -0.5418 -0.8501
19618SOL    HW259033   2.319   7.916   1.154  0.3009  0.5443  0.3082
19619SOL     OW59034   1.494   1.206   0.839 -0.4190  0.0921  0.4664
19619SOL    HW159035   1.428   1.131   0.852  0.0850 -0.5462 -0.5714
19619SOL    HW259036   1.586   1.168   0.830  0.2701  1.0212  2.7807
19620SOL     OW59037   2.927   6.048   3.789 -0.3919  0.1276  0.0627
19620SOL    HW159038   2.830   6.066   3.807 -0.4529 -0.8078  0.6963
19620SOL    HW259039   2.949   5.954   3.812  0.6102  0.2405 -0.3691
19621SOL     OW59040   3.395   6.270   7.496 -0.8471  0.2709 -0.2772
19621SOL    HW159041   3.459   6.310   7.431 -0.7811  0.8500  0.1383
19621SOL    HW259042   3.401   6.170   7.491  1.0346  0.2896  0.6339
19622SOL     OW59043   2.942   7.325   6.508 -0.0528 -0.3303 -0.0746
19622SOL    HW159044   2.898   7.414   6.491  1.4599  0.7994  1.4628
19622SOL    HW259045   2.872   7.258   6.531 -1.1410  0.8761  0.3116
19623SOL     OW59046   6.917   4.960   5.592 -0.2698 -0.0900  0.9516
19623SOL    HW159047   6.938   5.009   5.507 -0.6485 -1.1258  0.2384
19623SOL    HW259048   6.962   4.871   5.591 -2.9399 -1.5274  0.2897
19624SOL     OW59049   5.864   4.011   8.494  0.4001 -0.5115 -0.4561
19624SOL    HW159050   5.777   4.036   8.451 -2.0781 -0.4991  3.9912
19624SOL    HW259051   5.908   4.093   8.529  1.5182 -0.7008 -1.3389
19625SOL     OW59052   2.872   3.177   0.257 -0.2385 -0.2307  0.5610
19625SOL    HW159053   2.886   3.079   0.272 -0.9207 -0.3211  0.6534
19625SOL    HW259054   2.898   3.227   0.340 -1.6576 -0.5121  1.2045
19626SOL     OW59055   4.141   0.978   2.170  0.1948  0.3882 -0.2362
19626SOL    HW159056   4.133   0.881   2.190 -2.4247  0.8231  1.3696
19626SOL    HW259057   4.133   0.994   2.072  0.1622 -0.9727 -0.4613
19627SOL     OW59058   7.041   6.629   7.293  0.2721  0.2620 -0.0533
19627SOL    HW159059   7.136   6.655   7.308 -0.2996  2.0460  0.8596
19627SOL    HW259060   6.983   6.676   7.360 -1.3116 -0.2683 -0.9920
19628SOL     OW59061   4.481   7.997   4.986  0.1959  0.2065  0.1221
19628SOL    HW159062   4.503   8.074   5.045  1.6248  0.2833 -0.4598
19628SOL    HW259063   4.455   8.031   4.895 -0.5910  0.0417  0.2788
19629SOL     OW59064   7.301   7.964   4.619 -0.4292 -0.2551  0.1148
19629SOL    HW159065   7.294   7.871   4.581 -0.4258 -0.3718  0.3990
19629SOL    HW259066   7.390   8.003   4.595 -1.4525  0.7349 -2.3863
19630SOL     OW59067   7.341   7.942   2.159  0.1512 -0.3444  0.3915
19630SOL    HW159068   7.360   7.959   2.062  0.0819 -1.6276  0.1312
19630SOL    HW259069   7.275   8.010   2.192 -1.0420 -0.8193 -0.8907
19631SOL     OW59070   5.744   8.837   2.167  0.5008 -0.4168  0.3066
19631SOL    HW159071   5.660   8.806   2.123  1.2087 -0.6323 -0.9226
19631SOL    HW259072   5.819   8.832   2.102  1.3431  0.4098  1.2004
19632SOL     OW59073   8.598   5.241   8.422 -0.0164 -0.1388 -0.0959
19632SOL    HW159074   8.543   5.162   8.394  1.0766 -1.0222  0.1658
19632SOL    HW259075   8.694   5.214   8.429  0.2988  1.0771  0.5671
19633SOL     OW59076   7.618   5.697   0.177 -0.3991 -0.1928  0.1794
19633SOL    HW159077   7.709   5.718   0.142 -0.8600 -0.2206 -1.0964
19633SOL    HW259078   7.625   5.662   0.271  0.7911  0.8694  0.5192
19634SOL     OW59079   7.274   6.726   8.493  0.5276  0.7524  0.2480
19634SOL    HW159080   7.317   6.736   8.404  1.0719  0.9577  0.5278
19634SOL    HW259081   7.253   6.817   8.530  0.1477  0.6639  0.2609
19635SOL     OW59082   6.300   7.578   6.492 -0.0869  0.0834 -0.3301
19635SOL    HW159083   6.322   7.481   6.507  1.1541  0.3621 -0.2589
19635SOL    HW259084   6.205   7.594   6.517 -0.3257 -1.1290 -0.3842
19636SOL     OW59085   2.954   8.113   3.179 -0.1854 -0.3967 -0.8406
19636SOL    HW159086   2.867   8.065   3.165  0.5060 -2.2261  0.6415
19636SOL    HW259087   2.986   8.150   3.092 -1.1156 -2.0797 -1.9606
19637SOL     OW59088   4.839   0.512   6.380 -0.2287  0.0701 -0.9355
19637SOL    HW159089   4.799   0.585   6.435 -1.8232 -0.7073 -1.0262
19637SOL    HW259090   4.843   0.540   6.284  2.0513  1.2111 -0.5881
19638SOL     OW59091   6.599   3.331   4.062 -0.6970  0.0889 -0.0153
19638SOL    HW159092   6.541   3.253   4.037  0.7104 -0.9014 -0.3361
19638SOL    HW259093   6.685   3.325   4.012  0.0250  1.0725  1.0688
19639SOL     OW59094   3.338   1.293   4.129 -0.2085 -0.0918 -0.1258
19639SOL    HW159095   3.260   1.350   4.104  0.5310  0.5556 -1.0075
19639SOL    HW259096   3.359   1.230   4.055  0.1023 -0.2711  0.1109
19640SOL     OW59097   8.061   4.568   8.830 -0.0637  0.4135  0.2104
19640SOL    HW159098   8.078   4.543   8.734  0.8478  1.6269  0.0328
19640SOL    HW259099   8.024   4.489   8.879  1.7778 -1.0032 -0.5529
19641SOL     OW59100   7.271   7.555   0.195 -1.0059  0.2104  0.0775
19641SOL    HW159101   7.227   7.485   0.139 -0.4284  0.1631 -0.3255
19641SOL    HW259102   7.367   7.565   0.168 -0.8066  0.4274  0.8309
19642SOL     OW59103   5.942   2.793   4.556 -0.0650 -0.1358 -0.2885
19642SOL    HW159104   5.913   2.746   4.472  0.5610  3.9072 -3.0595
19642SOL    HW259105   5.894   2.880   4.563  2.2191  1.0593  1.8728
19643SOL     OW59106   2.057   4.661   3.243  0.2797 -0.0769  0.2445
19643SOL    HW159107   2.066   4.597   3.167 -1.1088  0.2575 -0.2307
19643SOL    HW259108   2.089   4.751   3.214  0.3436 -0.0941  0.2612
19644SOL     OW59109   4.475   7.731   7.649  0.6879  0.2318 -0.3938
19644SOL    HW159110   4.551   7.672   7.677 -0.8939 -1.0593  1.3805
19644SOL    HW259111   4.457   7.718   7.551  2.0909 -0.1641 -0.6260
19645SOL     OW59112   6.661   5.857   0.666 -0.1785 -0.0259 -0.1138
19645SOL    HW159113   6.721   5.885   0.741  0.3290  0.2193 -0.6009
19645SOL    HW259114   6.591   5.927   0.652  0.7133  0.7334 -0.9229
19646SOL     OW59115   4.317   6.552   0.184 -0.3421  0.1122 -0.0577
19646SOL    HW159116   4.339   6.628   0.123  2.8306  0.1630  0.9390
19646SOL    HW259117   4.292   6.587   0.274 -1.3835 -0.0281 -0.2782
19647SOL     OW59118   2.097   4.047   4.238  0.0876 -0.1792  0.4584
19647SOL    HW159119   2.172   4.099   4.199  1.0568 -1.4308  0.5866
19647SOL    HW259120   2.122   4.012   4.328 -1.1399  0.4585  1.0777
19648SOL     OW59121   7.132   4.254   2.602 -0.4036 -0.0664 -0.1270
19648SOL    HW159122   7.067   4.234   2.529 -1.6415 -1.9274  1.3781
19648SOL    HW259123   7.181   4.339   2.581 -3.4010  1.5159 -1.2769
19649SOL     OW59124   8.410   4.237   3.492  0.6326 -0.2639 -0.6114
19649SOL    HW159125   8.388   4.325   3.451  0.1242  0.2719  0.7534
19649SOL    HW259126   8.508   4.231   3.508  0.4119  1.2682  1.8358
19650SOL     OW59127   0.991   7.999   7.628  0.4705 -0.8385 -0.1726
19650SOL    HW159128   1.009   8.030   7.721  0.8929 -1.4547 -0.0403
19650SOL    HW259129   1.049   8.049   7.564  1.3112 -1.4901  0.0621
19651SOL     OW59130   6.192   4.433   3.532  0.2069  0.3545  0.2104
19651SOL    HW159131   6.251   4.447   3.452  1.2657  0.3014  0.9673
19651SOL    HW259132   6.216   4.346   3.576  0.7893  1.1679  1.5471
19652SOL     OW59133   5.597   8.339   7.228 -0.2492  0.1216  0.4359
19652SOL    HW159134   5.566   8.419   7.279 -0.0145 -1.6101  3.5694
19652SOL    HW259135   5.690   8.315   7.257 -0.2694 -1.2230 -0.4976
19653SOL     OW59136   1.104   1.798   4.048 -0.0161  0.3274  0.3339
19653SOL    HW159137   1.030   1.736   4.022 -0.4002 -0.2869  2.6176
19653SOL    HW259138   1.191   1.760   4.018 -0.3869 -0.5519  0.3257
19654SOL     OW59139   6.412   1.344   6.604 -0.4378  0.2156 -0.2036
19654SOL    HW159140   6.323   1.301   6.588 -1.2050  1.8280 -0.4799
19654SOL    HW259141   6.404   1.412   6.677  0.6053  0.2994 -0.1457
19655SOL     OW59142   1.838   2.668   4.870 -0.5526  1.2668 -0.0490
19655SOL    HW159143   1.809   2.575   4.849 -0.5455  0.5786  2.6235
19655SOL    HW259144   1.820   2.727   4.791 -1.0184 -0.8512 -1.6395
19656SOL     OW59145   5.884   0.612   5.998  0.6038  1.0290  0.8652
19656SOL    HW159146   5.932   0.639   5.915  2.0251 -0.5500  1.1220
19656SOL    HW259147   5.820   0.684   6.025  1.6196  2.4625 -0.4345
19657SOL     OW59148   7.108   3.829   1.960 -0.3101 -0.1593 -0.0152
19657SOL    HW159149   7.126   3.902   1.894 -1.1489 -1.5512 -1.8409
19657SOL    HW259150   7.187   3.821   2.021  1.1771  0.1675 -1.7879
19658SOL     OW59151   0.788   6.769   7.514 -0.7423  0.3713 -0.0063
19658SOL    HW159152   0.745   6.805   7.431  0.4503  0.5245 -0.5840
19658SOL    HW259153   0.811   6.672   7.500 -1.5974  0.0698  0.5917
19659SOL     OW59154   2.215   4.739   2.896  0.3839 -0.2665 -0.3770
19659SOL    HW159155   2.148   4.802   2.856  0.6254 -0.5515 -1.2522
19659SOL    HW259156   2.167   4.672   2.952 -0.0349 -0.2533 -0.7106
19660SOL     OW59157   1.852   1.572   6.288  0.0476 -0.3648  0.4404
19660SOL    HW159158   1.767   1.557   6.339  0.5466  0.6350  1.6063
19660SOL    HW259159   1.921   1.507   6.319  0.9479  1.4612  2.5298
19661SOL     OW59160   7.356   6.973   3.822 -1.1258 -0.0417  0.0799
19661SOL    HW159161   7.413   6.942   3.898 -0.7109 -0.0824 -0.2469
19661SOL    HW259162   7.310   6.895   3.780  1.0908 -0.4853 -1.7105
19662SOL     OW59163   7.025   0.714   8.502  0.1089  0.1459 -0.2466
19662SOL    HW159164   7.068   0.800   8.473  0.8472 -0.1881 -0.1582
19662SOL    HW259165   7.071   0.637   8.457  0.2175 -0.2773  0.5777
19663SOL     OW59166   2.116   2.399   1.541  0.0374 -0.0986  0.3099
19663SOL    HW159167   2.207   2.370   1.511 -0.5591 -0.5768 -1.1373
19663SOL    HW259168   2.073   2.325   1.592  0.4891  0.1712  1.1001
19664SOL     OW59169   6.891   1.402   3.994  0.0862  0.4437  0.6991
19664SOL    HW159170   6.943   1.374   3.913 -1.1980  1.3358 -0.4925
19664SOL    HW259171   6.928   1.488   4.029 -0.5513  1.0806 -0.1500
19665SOL     OW59172   0.195   8.208   0.027  0.3666  0.4505 -0.1934
19665SOL    HW159173   0.237   8.118   0.037  0.5456  0.5825  0.2934
19665SOL    HW259174   0.095   8.199   0.027  0.3194  0.4059  1.8266
19666SOL     OW59175   4.768   5.595   7.727  0.0007  0.1602  0.2976
19666SOL    HW159176   4.744   5.528   7.798 -0.0939 -0.8179 -0.6202
19666SOL    HW259177   4.865   5.586   7.705 -0.2241 -0.3738 -0.5186
19667SOL     OW59178   0.846   5.371   7.042  0.2236  0.1844  0.0743
19667SOL    HW159179   0.816   5.311   7.116 -1.3531  1.1058  0.2181
19667SOL    HW259180   0.797   5.347   6.958  1.5385 -0.4397 -0.5389
19668SOL     OW59181   2.780   0.388   5.660  0.5644 -0.0024  0.2497
19668SOL    HW159182   2.685   0.358   5.667  1.2261 -2.1376  0.5281
19668SOL    HW259183   2.812   0.420   5.749  0.8578 -1.7772  0.8235
19669SOL     OW59184   3.412   4.915   2.244  0.0332  0.5576  0.3019
19669SOL    HW159185   3.424   4.946   2.338  2.2238 -0.0882  0.2929
19669SOL    HW259186   3.445   4.821   2.234 -3.7991 -0.9155 -0.3143
19670SOL     OW59187   0.653   5.483   3.263 -0.3975 -0.3862 -0.0656
19670SOL    HW159188   0.706   5.530   3.333 -0.6307  0.0722 -0.1911
19670SOL    HW259189   0.638   5.388   3.290 -2.2725  0.3002  1.5053
19671SOL     OW59190   1.174   4.152   3.065  0.0556  0.2243 -0.0566
19671SOL    HW159191   1.129   4.065   3.083  0.5894  0.2041  1.3363
19671SOL    HW259192   1.131   4.197   2.987  1.8414 -2.7837 -3.0183
19672SOL     OW59193   0.266   7.635   4.458 -0.3136  0.8472  0.4785
19672SOL    HW159194   0.220   7.600   4.540  2.2598 -1.2085  1.1858
19672SOL    HW259195   0.230   7.726   4.435 -2.5657  0.5901  2.6162
19673SOL     OW59196   8.514   2.461   7.481  0.7671 -0.1174 -0.5122
19673SOL    HW159197   8.593   2.415   7.522 -0.1611 -0.3308  1.1158
19673SOL    HW259198   8.435   2.400   7.484  0.5232  0.0557 -2.2097
19674SOL     OW59199   1.209   2.557   5.232 -0.2989 -0.3559 -0.1159
19674SOL    HW159200   1.293   2.515   5.268 -0.6714  0.6041  2.0461
19674SOL    HW259201   1.131   2.500   5.256 -0.5442  0.2612  0.6167
19675SOL     OW59202   0.354   2.989   3.920 -0.2379  0.1014 -0.0857
19675SOL    HW159203   0.358   3.003   4.019 -0.1418 -2.0830  0.2696
19675SOL    HW259204   0.258   2.982   3.891 -0.3281  2.1464 -0.4185
19676SOL     OW59205   7.147   6.937   4.942  0.3708 -0.1671 -0.2634
19676SOL    HW159206   7.093   6.872   4.995  0.2387 -0.0750 -0.2844
19676SOL    HW259207   7.098   7.024   4.935  1.1224  0.3674  0.8602
19677SOL     OW59208   5.764   1.727   2.093 -0.5491 -0.1440  0.3150
19677SOL    HW159209   5.762   1.827   2.087 -2.3421 -0.2091 -0.9470
19677SOL    HW259210   5.723   1.688   2.011  0.0450 -1.9355  0.8267
19678SOL     OW59211   1.240   6.108   8.837 -0.3629  0.5585  0.0172
19678SOL    HW159212   1.257   6.023   8.788  1.8143  0.4060  0.9184
19678SOL    HW259213   1.216   6.180   8.771 -0.4228 -0.3140 -0.9387
19679SOL     OW59214   4.887   8.476   0.027 -0.6072  0.2775  0.0204
19679SOL    HW159215   4.858   8.562  -0.014 -0.2562  0.2026 -0.3842
19679SOL    HW259216   4.978   8.451  -0.007 -0.6007 -0.1279  0.3221
19680SOL     OW59217   1.100   0.868   8.407 -0.3757  0.0738 -0.2079
19680SOL    HW159218   1.108   0.958   8.365  0.0891 -0.3138 -0.9609
19680SOL    HW259219   1.126   0.874   8.504  0.5947  0.5605 -0.4897
19681SOL     OW59220   8.817   5.430   3.761  0.4443  0.1137 -0.0374
19681SOL    HW159221   8.902   5.391   3.798  1.7078  0.0208 -2.7894
19681SOL    HW259222   8.742   5.366   3.775  1.4485 -1.1017 -0.0430
19682SOL     OW59223   7.625   2.532   1.740  0.0920 -0.6470  0.5590
19682SOL    HW159224   7.679   2.467   1.793  0.1047 -1.9745 -0.9956
19682SOL    HW259225   7.649   2.524   1.643 -2.9974 -1.4702 -0.2532
19683SOL     OW59226   8.514   4.469   4.734 -0.0540  0.0219  0.2265
19683SOL    HW159227   8.428   4.519   4.728 -0.7054 -1.1235 -0.4407
19683SOL    HW259228   8.525   4.433   4.827 -0.5211 -0.1829  0.2083
19684SOL     OW59229   0.686   2.243   4.355 -0.3497  0.3393  0.8411
19684SOL    HW159230   0.693   2.158   4.303  0.3210  1.7591 -1.6062
19684SOL    HW259231   0.778   2.274   4.380 -0.4310  1.1683  0.1792
19685SOL     OW59232   5.834   1.108   7.762 -0.3331  0.9708  0.1572
19685SOL    HW159233   5.908   1.067   7.816  0.4287 -1.3580 -2.3636
19685SOL    HW259234   5.746   1.070   7.790  0.2830 -2.1567 -1.6017
19686SOL     OW59235   7.143   8.629   4.381 -0.5115 -0.9553  0.6787
19686SOL    HW159236   7.149   8.530   4.386  1.2327 -0.8831  0.5949
19686SOL    HW259237   7.151   8.659   4.286  0.1288 -0.6777  0.8188
19687SOL     OW59238   4.695   1.252   0.117  0.0605  0.2058 -0.1406
19687SOL    HW159239   4.694   1.208   0.206  2.2227  1.8354  0.7669
19687SOL    HW259240   4.656   1.344   0.124 -2.7103 -0.7166 -1.6262
19688SOL     OW59241   5.468   4.535   1.086  0.4099  0.3458 -0.2294
19688SOL    HW159242   5.383   4.584   1.067  0.8836  0.4633 -2.3391
19688SOL    HW259243   5.450   4.461   1.151 -1.1878  0.7070 -0.2173
19689SOL     OW59244   5.804   3.983   3.780  0.3358 -0.3419 -0.5909
19689SOL    HW159245   5.737   3.910   3.770 -1.1745  0.8616  0.4213
19689SOL    HW259246   5.891   3.945   3.812 -0.6311 -1.6127  0.6052
19690SOL     OW59247   5.349   1.616   0.894 -0.4389  0.2726 -0.3286
19690SOL    HW159248   5.380   1.568   0.812 -1.7809  0.9473 -1.2659
19690SOL    HW259249   5.302   1.701   0.868 -2.5986 -0.4341  0.9892
19691SOL     OW59250   3.247   2.072   7.724  0.0195 -0.2910 -0.0187
19691SOL    HW159251   3.234   2.011   7.802 -1.3410  0.9104  0.7350
19691SOL    HW259252   3.245   2.167   7.755  2.5031  0.2054 -1.0982
19692SOL     OW59253   1.122   4.101   3.637  0.0877  0.6409 -0.1113
19692SOL    HW159254   1.061   4.036   3.682 -0.9884  0.9820 -1.0412
19692SOL    HW259255   1.069   4.164   3.581  1.3861 -0.1422 -2.3487
19693SOL     OW59256   0.623   4.824   5.212  0.5832  0.0100 -0.0091
19693SOL    HW159257   0.655   4.767   5.136 -0.1903 -0.2017 -0.1853
19693SOL    HW259258   0.534   4.791   5.243  0.2836  0.9076  0.1157
19694SOL     OW59259   0.909   3.755   0.057  0.0900 -0.1684 -0.3822
19694SOL    HW159260   0.819   3.793   0.034 -0.1671 -1.7848 -2.3088
19694SOL    HW259261   0.899   3.689   0.131 -0.3154 -0.3420 -0.5888
19695SOL     OW59262   7.205   0.711   6.350 -0.1200 -0.8621 -0.1757
19695SOL    HW159263   7.196   0.612   6.351  0.2084 -0.8935 -0.0331
19695SOL    HW259264   7.168   0.749   6.435  0.3007 -0.9160  0.0342
19696SOL     OW59265   4.287   6.043   1.035  0.5233  0.1655 -0.3376
19696SOL    HW159266   4.242   5.989   1.106  0.4853 -0.1784 -0.6176
19696SOL    HW259267   4.377   6.004   1.016 -0.0130 -0.6019 -1.4495
19697SOL     OW59268   1.162   6.082   4.832 -0.2593  0.2802  0.0740
19697SOL    HW159269   1.147   6.036   4.920 -2.7777  0.0679 -0.3905
19697SOL    HW259270   1.162   6.014   4.759  1.7789  0.4629 -0.1446
19698SOL     OW59271   7.192   8.463   6.260  0.0834  0.0646  0.0634
19698SOL    HW159272   7.276   8.508   6.229 -0.0933  0.8882  0.7426
19698SOL    HW259273   7.206   8.425   6.351  0.9953 -3.4483 -1.4054
19699SOL     OW59274   8.042   2.020   4.661  0.2051 -0.3623 -0.3422
19699SOL    HW159275   8.111   1.950   4.681  2.6747  2.4185  1.7752
19699SOL    HW259276   8.064   2.066   4.576  1.3704  0.8414  0.5670
19700SOL     OW59277   4.246   1.824   3.061 -0.2005 -0.5882  0.0722
19700SOL    HW159278   4.276   1.802   3.154  1.3078 -0.0606 -0.2603
19700SOL    HW259279   4.160   1.875   3.065 -0.7613 -1.5643  1.1067
19701SOL     OW59280   2.645   6.792   2.037 -0.2245 -0.5508 -0.2438
19701SOL    HW159281   2.715   6.732   2.074 -1.2661 -1.7889 -0.2138
19701SOL    HW259282   2.618   6.761   1.946  0.0157  0.5632 -0.7218
19702SOL     OW59283   2.510   7.935   2.762 -0.0317  0.7998 -0.7589
19702SOL    HW159284   2.599   7.971   2.791  0.1724  0.3825 -0.8540
19702SOL    HW259285   2.438   7.999   2.788  0.1898  0.6510  0.2580
19703SOL     OW59286   4.451   1.069   1.657 -0.2201 -0.2633  0.3500
19703SOL    HW159287   4.373   1.094   1.714  0.3159 -0.1236  1.0331
19703SOL    HW259288   4.430   1.089   1.561 -1.4945 -1.4110  0.3592
19704SOL     OW59289   6.726   0.550   3.972  0.3105  0.0375 -0.3463
19704SOL    HW159290   6.721   0.498   4.057  0.9567  0.3109 -0.1386
19704SOL    HW259291   6.812   0.600   3.968 -0.0018  0.5469 -0.8647
19705SOL     OW59292   1.393   5.580   3.396  0.3855  0.4046 -0.2578
19705SOL    HW159293   1.422   5.560   3.489 -0.4031  0.4604 -0.0013
19705SOL    HW259294   1.353   5.672   3.392 -0.5176  0.0066 -0.4483
19706SOL     OW59295   5.756   5.994   3.502 -0.3194  0.4067  0.1384
19706SOL    HW159296   5.785   5.899   3.505 -1.9612 -0.1459 -0.3492
19706SOL    HW259297   5.751   6.031   3.595  0.2859  0.0038  0.3314
19707SOL     OW59298   2.022   4.362   4.292  0.2275  0.0628 -0.0402
19707SOL    HW159299   2.077   4.412   4.359  0.3955  1.2333 -1.0231
19707SOL    HW259300   1.989   4.425   4.222 -0.5597 -1.0113 -0.6660
19708SOL     OW59301   6.710   0.410   4.222 -0.0574 -0.2479  0.2754
19708SOL    HW159302   6.782   0.366   4.277  0.3851 -1.0875 -0.9458
19708SOL    HW259303   6.626   0.358   4.230  0.3867 -1.1811 -0.9343
19709SOL     OW59304   0.282   0.037   0.791 -0.4475 -0.6574 -0.0922
19709SOL    HW159305   0.298  -0.059   0.765 -0.4725 -0.3976 -1.1297
19709SOL    HW259306   0.337   0.096   0.732  0.2133 -0.0553  1.0965
19710SOL     OW59307   2.112   5.105   8.803 -0.3647 -0.3181  0.0304
19710SOL    HW159308   2.189   5.168   8.817  0.2810 -1.2067  0.5213
19710SOL    HW259309   2.038   5.127   8.867 -0.2893  0.1607 -0.0427
19711SOL     OW59310   1.307   3.359   3.147  0.0820 -0.0558 -0.0289
19711SOL    HW159311   1.291   3.267   3.183  0.0335 -0.4797 -1.0969
19711SOL    HW259312   1.237   3.421   3.183 -0.5680 -0.6850 -0.1803
19712SOL     OW59313   7.097   5.107   2.609 -0.2981  0.0133 -0.0830
19712SOL    HW159314   7.160   5.115   2.532  0.5995 -0.8564  0.5439
19712SOL    HW259315   7.006   5.140   2.581  0.0400 -0.1737 -1.4713
19713SOL     OW59316   0.791   7.008   6.628  0.3199 -0.2154 -0.0954
19713SOL    HW159317   0.819   7.096   6.667  1.4253  0.3117 -1.9384
19713SOL    HW259318   0.743   6.955   6.697  0.4373  1.4522  1.3473
19714SOL     OW59319   3.515   1.446   6.237 -0.1763 -0.3391  0.1388
19714SOL    HW159320   3.444   1.378   6.219 -0.0828  0.0459 -2.0549
19714SOL    HW259321   3.506   1.521   6.171 -0.6633  2.1680  2.8525
19715SOL     OW59322   4.920   2.990   4.979 -0.5240 -1.0593 -0.6143
19715SOL    HW159323   4.971   3.072   5.004 -1.7764 -0.6359  0.6990
19715SOL    HW259324   4.967   2.943   4.904  0.2857  0.7664 -1.3123
19716SOL     OW59325   0.818   5.724   6.332 -0.4522 -0.4546  0.6936
19716SOL    HW159326   0.808   5.753   6.237 -1.7376  0.7516  1.1743
19716SOL    HW259327   0.824   5.804   6.392 -1.5108 -1.1664  1.8088
19717SOL     OW59328   2.950   7.795   4.341  0.4710  0.3348  0.4752
19717SOL    HW159329   2.904   7.746   4.415  1.3081  0.6412  1.2035
19717SOL    HW259330   2.914   7.889   4.336  1.6569  0.8700  1.6569
19718SOL     OW59331   2.787   3.931   2.592 -0.1998 -0.2363  0.2844
19718SOL    HW159332   2.747   3.977   2.672 -0.3287 -0.2902  0.2521
19718SOL    HW259333   2.715   3.882   2.543 -0.2214  0.2514 -0.1778
19719SOL     OW59334   2.671   2.037   6.770 -0.1352 -0.2337  0.2007
19719SOL    HW159335   2.633   1.947   6.789  0.3737 -0.0055  2.6032
19719SOL    HW259336   2.763   2.026   6.731 -0.1804 -0.7385  0.2246
19720SOL     OW59337   6.074   6.700   0.661  0.3716  0.7946  0.4276
19720SOL    HW159338   6.021   6.712   0.745  0.2607  0.5423  0.3960
19720SOL    HW259339   6.165   6.666   0.683 -0.8477 -3.1897  0.3038
19721SOL     OW59340   8.660   7.366   2.973  0.2997 -0.3065 -0.5006
19721SOL    HW159341   8.570   7.363   2.929 -0.4144  1.7281  0.7151
19721SOL    HW259342   8.718   7.433   2.927  1.2019 -1.5210 -1.2018
19722SOL     OW59343   2.873   6.658   1.084 -0.3052  0.7321  0.2001
19722SOL    HW159344   2.838   6.736   1.033 -0.9403  0.1730 -0.2409
19722SOL    HW259345   2.798   6.593   1.101  0.2764  0.0630  0.2648
19723SOL     OW59346   2.356   7.272   2.382  0.1915 -0.0813 -0.0565
19723SOL    HW159347   2.414   7.262   2.301  0.2879  0.6063 -0.0829
19723SOL    HW259348   2.282   7.337   2.362 -1.8897 -2.4799 -0.7296
19724SOL     OW59349   6.268   0.186   1.530  0.3524  0.2285  0.5009
19724SOL    HW159350   6.337   0.119   1.501  1.3110  1.7433 -0.9355
19724SOL    HW259351   6.313   0.259   1.581 -0.2313  1.0314 -0.1020
19725SOL     OW59352   3.061   2.063   1.929 -0.1640  0.1027  0.2863
19725SOL    HW159353   3.098   2.156   1.930 -1.0346  0.5391  2.9802
19725SOL    HW259354   3.131   1.999   1.961  0.4056 -0.1880 -1.4770
19726SOL     OW59355   0.792   5.848   2.837 -0.1483  0.2139  0.4685
19726SOL    HW159356   0.778   5.769   2.896  1.0640  0.6214  1.3310
19726SOL    HW259357   0.804   5.818   2.742 -1.4217 -0.4905  0.5086
19727SOL     OW59358   2.410   2.308   1.788  0.0576  0.2603  0.6224
19727SOL    HW159359   2.329   2.348   1.831 -1.0720 -0.6712 -0.5557
19727SOL    HW259360   2.420   2.213   1.817 -0.9083 -0.4936 -1.3060
19728SOL     OW59361   8.249   3.543   6.954 -0.9724  0.1158 -0.2250
19728SOL    HW159362   8.230   3.477   6.881 -0.3366  0.8175 -1.0510
19728SOL    HW259363   8.164   3.588   6.981 -1.2919 -0.5048 -0.1822
19729SOL     OW59364   6.931   0.478   7.605  0.5791 -0.0861  1.0946
19729SOL    HW159365   6.995   0.553   7.623  1.2916 -0.9418  2.2376
19729SOL    HW259366   6.860   0.478   7.675 -0.9045  1.0455 -0.3374
19730SOL     OW59367   4.230   6.724   3.003  0.0499 -0.2727 -0.3006
19730SOL    HW159368   4.184   6.635   3.006 -2.6985  1.0523 -0.4644
19730SOL    HW259369   4.175   6.789   2.950  2.1453  1.4877 -0.4919
19731SOL     OW59370   7.728   8.262   7.438 -0.7290  0.5702 -0.3290
19731SOL    HW159371   7.685   8.322   7.371 -0.4953  0.2488 -0.7715
19731SOL    HW259372   7.823   8.243   7.410  0.0026  1.9296  1.0475
19732SOL     OW59373   0.113   4.111   2.044  0.0935 -0.6630 -0.2751
19732SOL    HW159374   0.085   4.072   1.957  1.8280 -2.6007 -0.0724
19732SOL    HW259375   0.116   4.038   2.113  0.3699  0.4952  0.9836
19733SOL     OW59376   4.206   5.493   5.173 -0.1559 -0.0337 -0.2124
19733SOL    HW159377   4.215   5.472   5.076 -1.0884  0.8686 -0.5116
19733SOL    HW259378   4.123   5.546   5.188  1.4965  2.4735  0.6375
19734SOL     OW59379   2.203   4.227   7.666  0.0034  0.3929  0.4523
19734SOL    HW159380   2.209   4.321   7.700 -0.5347  0.3787  0.5915
19734SOL    HW259381   2.173   4.167   7.740  0.9153  0.0055  0.5281
19735SOL     OW59382   5.643   1.028   4.109 -0.4839 -0.1502  0.1697
19735SOL    HW159383   5.675   1.071   4.193 -1.0051 -0.2887  0.4463
19735SOL    HW259384   5.675   0.933   4.106 -1.2046 -0.4193  0.6526
19736SOL     OW59385   5.944   0.928   7.561  0.0531 -0.6103 -0.1915
19736SOL    HW159386   6.011   0.979   7.507 -0.8958 -1.2880 -2.0908
19736SOL    HW259387   5.896   0.991   7.623 -0.7090  0.7585 -2.0797
19737SOL     OW59388   4.860   4.178   7.822 -0.3276 -0.4561 -0.5418
19737SOL    HW159389   4.802   4.160   7.901  0.1921 -1.4458 -0.3699
19737SOL    HW259390   4.826   4.258   7.773 -0.1233  0.7380  1.1858
19738SOL     OW59391   3.036   2.572   6.884 -0.0354  0.0955  0.5657
19738SOL    HW159392   3.069   2.495   6.938  1.2306 -0.1111 -0.4660
19738SOL    HW259393   3.112   2.615   6.836 -1.1055  0.1616 -1.1931
19739SOL     OW59394   3.329   7.665   2.918  0.0637 -0.2511  0.0855
19739SOL    HW159395   3.327   7.691   2.821 -0.3082 -2.4376 -0.5461
19739SOL    HW259396   3.240   7.627   2.944  0.2295  0.1128  1.2552
19740SOL     OW59397   7.484   7.614   0.031  0.1389 -0.0623  0.2298
19740SOL    HW159398   7.565   7.661   0.067  1.0508 -0.7145 -0.8996
19740SOL    HW259399   7.497   7.596  -0.067  0.0695 -3.1164  0.6969
19741SOL     OW59400   0.456   6.119   0.909  0.1421  0.2557 -0.1895
19741SOL    HW159401   0.372   6.094   0.958  0.7430 -1.5364  0.0007
19741SOL    HW259402   0.514   6.038   0.900  0.5356  0.7548 -2.9601
19742SOL     OW59403   6.437   0.329   5.889  0.4102  0.3917  0.2558
19742SOL    HW159404   6.456   0.271   5.810  0.4813  1.0209 -0.1975
19742SOL    HW259405   6.519   0.381   5.912  0.5698 -0.2113  1.1161
19743SOL     OW59406   8.828   1.132   5.619 -0.1776 -0.2615  0.0589
19743SOL    HW159407   8.801   1.042   5.586 -0.9536 -0.0193  0.0083
19743SOL    HW259408   8.919   1.154   5.585  0.6025 -1.6019  1.2237
19744SOL     OW59409   0.434   6.747   2.509  0.2741 -0.2836  0.5237
19744SOL    HW159410   0.426   6.721   2.606  1.4463  1.5513  1.1592
19744SOL    HW259411   0.519   6.797   2.495 -0.3593  0.3579 -1.2829
19745SOL     OW59412   2.017   1.986   5.813 -0.1523  0.2644  0.4141
19745SOL    HW159413   1.987   2.061   5.754  0.1285 -0.8695 -1.2531
19745SOL    HW259414   1.952   1.911   5.807  1.4120 -1.0918 -0.9827
19746SOL     OW59415   5.706   0.780   1.530  0.2908  0.2404 -0.2996
19746SOL    HW159416   5.670   0.828   1.450  2.7519  1.7207 -0.6240
19746SOL    HW259417   5.710   0.843   1.608 -0.5232 -0.7240  0.5575
19747SOL     OW59418   4.543   3.391   5.441  0.0283 -0.1671 -0.3850
19747SOL    HW159419   4.447   3.420   5.449 -0.2782 -0.8072 -1.5346
19747SOL    HW259420   4.595   3.430   5.517 -1.4119 -0.9022  1.0606
19748SOL     OW59421   7.977   8.688   7.540 -0.1924  0.1283  0.0477
19748SOL    HW159422   7.945   8.623   7.609 -2.7650  1.6404  0.3922
19748SOL    HW259423   8.021   8.765   7.584  1.9071 -0.8117 -0.3054
19749SOL     OW59424   3.037   1.584   2.561  0.1775  0.1816 -0.8779
19749SOL    HW159425   3.090   1.634   2.630  0.9143  0.1246 -1.3939
19749SOL    HW259426   2.949   1.630   2.548  0.7567  1.2483 -1.1924
19750SOL     OW59427   1.008   5.919   2.431  0.0486  0.4889 -0.5004
19750SOL    HW159428   0.961   5.994   2.385  0.3982  0.2975 -1.1776
19750SOL    HW259429   0.948   5.838   2.434 -0.1943  0.6805 -0.0848
19751SOL     OW59430   0.583   4.018   3.706  0.3226 -0.4262  0.3713
19751SOL    HW159431   0.534   3.931   3.709 -1.0351  0.3042  2.9807
19751SOL    HW259432   0.630   4.032   3.794  1.9280  0.7260 -0.6251
19752SOL     OW59433   7.306   8.792   3.579 -0.1060 -0.7022 -0.2576
19752SOL    HW159434   7.209   8.803   3.559 -0.5592 -2.5286  0.8009
19752SOL    HW259435   7.322   8.705   3.626  1.8714  0.1205  0.7313
19753SOL     OW59436   7.143   5.232   6.425  0.6402 -0.1327 -0.7861
19753SOL    HW159437   7.049   5.204   6.407  0.8235 -2.9899  1.9347
19753SOL    HW259438   7.147   5.283   6.511  1.7421 -1.9097  0.2833
19754SOL     OW59439   4.492   5.485   5.002  0.0852 -0.2424 -0.1796
19754SOL    HW159440   4.491   5.585   4.994 -0.2960 -0.2854 -0.7218
19754SOL    HW259441   4.527   5.459   5.092 -0.2687  0.3947  0.1476
19755SOL     OW59442   8.543   3.723   7.825 -0.3683  0.3538 -0.6883
19755SOL    HW159443   8.509   3.795   7.765 -0.1645  0.2915 -0.8787
19755SOL    HW259444   8.523   3.633   7.785 -0.0038  0.3153 -0.7939
19756SOL     OW59445   4.581   3.661   6.460 -0.0185 -0.3057  0.4811
19756SOL    HW159446   4.666   3.665   6.407  0.9718  1.1996  2.0714
19756SOL    HW259447   4.516   3.727   6.422 -0.4126 -1.2697 -0.5743
19757SOL     OW59448   6.480   3.775   6.906 -0.2749  0.1433  0.5248
19757SOL    HW159449   6.457   3.730   6.993 -1.0592  1.2561  0.9228
19757SOL    HW259450   6.496   3.706   6.836  0.7553 -0.7988  1.6364
19758SOL     OW59451   3.636   4.698   7.930  0.4482  0.3384  0.0736
19758SOL    HW159452   3.658   4.751   7.849 -1.3032  2.2255  0.7259
19758SOL    HW259453   3.548   4.651   7.916 -0.3682  1.4620  1.1429
19759SOL     OW59454   4.869   3.132   3.119 -0.4677 -0.1413 -0.3856
19759SOL    HW159455   4.785   3.172   3.155 -0.3550 -0.9595  0.8508
19759SOL    HW259456   4.937   3.204   3.106 -1.4841  0.5889 -1.8123
19760SOL     OW59457   4.932   6.455   8.637  0.5645  0.3598 -0.8917
19760SOL    HW159458   5.023   6.480   8.670  0.5129 -1.1460  0.5119
19760SOL    HW259459   4.865   6.520   8.674  0.8219  0.2049 -0.1392
19761SOL     OW59460   5.107   0.885   0.154  0.5067  0.1142  0.4553
19761SOL    HW159461   5.118   0.854   0.249  0.5877  0.6941  0.6376
19761SOL    HW259462   5.143   0.978   0.145  1.4816 -0.3249 -0.3854
19762SOL     OW59463   5.913   5.716   5.883 -0.6476  0.0578 -0.1214
19762SOL    HW159464   5.944   5.628   5.847  0.0457  0.5363 -0.7121
19762SOL    HW259465   5.866   5.768   5.812  0.8896  1.0832 -0.4420
19763SOL     OW59466   1.590   0.077   8.601  0.0062  0.0050 -0.3849
19763SOL    HW159467   1.592   0.007   8.529 -0.1643  0.9165 -1.3051
19763SOL    HW259468   1.647   0.154   8.573 -0.9701  0.8622 -0.0415
19764SOL     OW59469   7.812   8.305   8.649  0.4612 -0.1777  0.0287
19764SOL    HW159470   7.730   8.249   8.661 -0.7897  1.8573  1.5139
19764SOL    HW259471   7.880   8.279   8.717 -0.3023  0.3824  1.0329
19765SOL     OW59472   4.488   3.847   3.790  0.5990  0.2712  0.0563
19765SOL    HW159473   4.474   3.818   3.884  0.7453 -0.8589 -0.2630
19765SOL    HW259474   4.403   3.886   3.753  0.1720 -0.4815  0.2380
19766SOL     OW59475   7.294   8.015   1.724  0.0049 -0.7193  0.5429
19766SOL    HW159476   7.213   8.048   1.773 -0.0730 -1.1365  0.6915
19766SOL    HW259477   7.279   8.025   1.626  0.8127  1.7196  0.5906
19767SOL     OW59478   1.666   6.923   6.103  0.4022  0.1764 -0.3267
19767SOL    HW159479   1.671   6.966   6.193 -0.1298 -0.8401  0.2106
19767SOL    HW259480   1.758   6.913   6.066  0.6849  0.0346  0.3856
19768SOL     OW59481   3.314   0.955   3.575 -0.2803  0.3802  0.2830
19768SOL    HW159482   3.225   0.910   3.567 -0.0338 -0.1145  0.2467
19768SOL    HW259483   3.349   0.975   3.484 -0.2681  0.3982  0.2917
19769SOL     OW59484   2.736   7.920   3.145 -0.3963 -0.0024 -0.0000
19769SOL    HW159485   2.637   7.905   3.144 -0.7109  1.8771 -0.1283
19769SOL    HW259486   2.776   7.870   3.222 -1.3323 -1.2892 -0.3098
19770SOL     OW59487   7.346   3.356   0.854  0.0409 -0.3057 -0.3941
19770SOL    HW159488   7.382   3.266   0.830  0.1256 -0.3113 -0.2474
19770SOL    HW259489   7.254   3.367   0.815 -0.7848 -1.2067  1.2114
19771SOL     OW59490   4.713   8.146   5.746  0.0561  0.3571  0.3055
19771SOL    HW159491   4.641   8.110   5.805 -0.7880  0.3761 -0.6764
19771SOL    HW259492   4.686   8.236   5.712  0.4765  0.2956 -0.2004
19772SOL     OW59493   8.451   5.418   2.673  0.3719 -0.3372 -0.1354
19772SOL    HW159494   8.479   5.497   2.729  2.3904 -1.3885  0.4414
19772SOL    HW259495   8.353   5.404   2.682  0.3821  0.5140  1.8928
19773SOL     OW59496   5.670   5.195   2.743  0.2576  0.1100 -0.4094
19773SOL    HW159497   5.763   5.181   2.708  0.3478  1.3399 -0.6775
19773SOL    HW259498   5.655   5.132   2.820  0.5874 -1.5595 -1.6340
19774SOL     OW59499   5.030   0.578   0.104  0.0473  0.0865  0.1064
19774SOL    HW159500   5.101   0.642   0.075  1.7419 -1.3012  0.9579
19774SOL    HW259501   5.012   0.512   0.031 -0.8105  0.7634 -0.3150
19775SOL     OW59502   4.756   6.841   8.110 -0.9771 -0.5252  0.1776
19775SOL    HW159503   4.803   6.823   8.196 -0.6940 -0.9134 -0.0575
19775SOL    HW259504   4.789   6.778   8.039  0.4496  1.2251 -0.8121
19776SOL     OW59505   2.978   0.753   0.330  0.1959  0.4712  0.0003
19776SOL    HW159506   3.030   0.716   0.254 -0.2381  1.9255 -1.0440
19776SOL    HW259507   2.888   0.783   0.297  0.1419  1.4593  1.0068
19777SOL     OW59508   6.316   4.496   6.293  1.0039 -0.5923  0.2246
19777SOL    HW159509   6.367   4.579   6.312 -0.0467 -0.1913  1.4920
19777SOL    HW259510   6.315   4.438   6.375  0.4060 -1.1200 -0.1437
19778SOL     OW59511   0.891   1.112   7.302  0.2625 -0.3633  0.1235
19778SOL    HW159512   0.875   1.014   7.294 -1.6705 -0.1560  0.8894
19778SOL    HW259513   0.939   1.131   7.387  2.0773 -0.7512 -0.7758
19779SOL     OW59514   1.298   8.742   0.646 -0.0689  0.3921 -0.2648
19779SOL    HW159515   1.290   8.841   0.638  1.0873  0.6111  0.8658
19779SOL    HW259516   1.395   8.717   0.655 -0.3357 -0.8505 -0.6273
19780SOL     OW59517   8.166   8.210   0.959 -0.5680 -0.5345 -0.6628
19780SOL    HW159518   8.226   8.190   0.882 -0.9765  1.5429 -1.5945
19780SOL    HW259519   8.087   8.263   0.926 -0.7821  0.3478  1.1643
19781SOL     OW59520   4.071   1.156   1.422  0.4795 -0.2976  0.0206
19781SOL    HW159521   4.059   1.145   1.324  2.4167  2.6689 -0.6653
19781SOL    HW259522   3.984   1.181   1.464 -0.1710 -0.6832 -1.0758
19782SOL     OW59523   4.247   4.767   3.814  0.5304  0.5125  0.1167
19782SOL    HW159524   4.224   4.670   3.801 -2.0348  1.1298 -0.4427
19782SOL    HW259525   4.260   4.785   3.911  1.7473 -0.5145  0.1706
19783SOL     OW59526   2.357   4.016   3.991 -0.7906 -0.2352  0.8648
19783SOL    HW159527   2.422   4.092   3.986 -0.4076 -0.5204  1.4189
19783SOL    HW259528   2.272   4.042   3.945 -0.2694  0.1210  0.0795
19784SOL     OW59529   0.465   7.244   1.327  0.2453 -0.2978  0.0170
19784SOL    HW159530   0.457   7.293   1.240  1.1517 -0.0485  0.0637
19784SOL    HW259531   0.510   7.303   1.394 -0.4531 -0.4858  0.6669
19785SOL     OW59532   1.726   5.454   2.410  0.4189 -0.0169  0.1765
19785SOL    HW159533   1.720   5.554   2.412  1.0928  0.1275 -2.0012
19785SOL    HW259534   1.643   5.416   2.369  1.1106 -0.1534 -1.1552
19786SOL     OW59535   4.913   5.303   2.337  0.1105  0.1628  0.2841
19786SOL    HW159536   4.945   5.380   2.393 -0.6338  0.7600 -0.1028
19786SOL    HW259537   4.992   5.252   2.303  0.6196  0.9520  0.2647
19787SOL     OW59538   4.456   4.605   1.214  0.7472  1.1882  0.0485
19787SOL    HW159539   4.435   4.587   1.310 -1.1280 -1.3673 -0.7184
19787SOL    HW259540   4.412   4.691   1.186 -0.4818  0.9044  0.9778
19788SOL     OW59541   7.743   1.248   6.682  0.3094  0.1066  0.8385
19788SOL    HW159542   7.811   1.175   6.677  0.1134  0.0210 -1.6064
19788SOL    HW259543   7.665   1.225   6.624 -0.4603  1.5750  1.2428
19789SOL     OW59544   1.295   2.114   4.309 -0.6454  0.0663  0.0813
19789SOL    HW159545   1.362   2.184   4.284 -1.5778  0.5804 -1.0953
19789SOL    HW259546   1.327   2.025   4.278 -0.2457  0.2212  0.0437
19790SOL     OW59547   6.159   7.500   2.038 -0.1311 -0.2703  0.0732
19790SOL    HW159548   6.100   7.428   2.002  0.8550 -0.2743 -1.6240
19790SOL    HW259549   6.177   7.567   1.966 -0.1144  1.0887  1.3028
19791SOL     OW59550   8.145   6.837   8.514  0.5426 -0.0113 -0.5535
19791SOL    HW159551   8.057   6.805   8.550  0.9074  0.8640  1.2155
19791SOL    HW259552   8.129   6.901   8.439 -0.3865  1.0385  0.5058
19792SOL     OW59553   8.632   1.405   1.571  0.2205  0.6140 -0.2755
19792SOL    HW159554   8.592   1.349   1.499  0.8587 -0.6062  0.2804
19792SOL    HW259555   8.560   1.447   1.626 -0.2987  2.5892 -2.3443
19793SOL     OW59556   6.428   2.627   7.063 -0.0245  0.1867 -0.7229
19793SOL    HW159557   6.490   2.549   7.069  0.6968  0.8413  0.6185
19793SOL    HW259558   6.415   2.652   6.967  1.8521  0.0808 -1.0361
19794SOL     OW59559   7.236   6.798   6.282  0.6749 -0.2764 -0.3287
19794SOL    HW159560   7.317   6.844   6.247  1.4556 -1.0348  0.4237
19794SOL    HW259561   7.159   6.813   6.220  1.4413  0.2862 -1.1596
19795SOL     OW59562   0.097   5.829   0.552 -0.0554  0.0583  0.0462
19795SOL    HW159563   0.119   5.914   0.599  0.3715 -0.1862  0.2885
19795SOL    HW259564   0.163   5.812   0.479 -1.2159  0.8944 -1.2608
19796SOL     OW59565   1.711   6.899   3.006 -0.0008 -0.6121 -0.2464
19796SOL    HW159566   1.621   6.871   3.039  0.0628 -1.3750 -0.7069
19796SOL    HW259567   1.774   6.907   3.083 -0.6421  0.6851  0.1811
19797SOL     OW59568   8.653   4.462   5.471  0.4988 -0.4740 -0.6474
19797SOL    HW159569   8.601   4.381   5.442  2.1820 -1.3996 -1.2474
19797SOL    HW259570   8.742   4.432   5.508  0.7454  1.0602  0.0470
19798SOL     OW59571   2.194   5.510   6.120 -0.4561 -0.0474 -0.1929
19798SOL    HW159572   2.199   5.555   6.031 -0.3551 -0.2705 -0.3020
19798SOL    HW259573   2.107   5.531   6.164  0.2812  1.6630  0.5190
19799SOL     OW59574   3.759   1.129   1.961  0.0237  0.3898 -0.0002
19799SOL    HW159575   3.736   1.059   2.029  1.0845 -0.5265 -0.5518
19799SOL    HW259576   3.689   1.129   1.889 -0.3551  0.3878  0.3645
19800SOL     OW59577   6.448   2.992   1.558 -0.2854 -0.2015 -0.0918
19800SOL    HW159578   6.467   2.968   1.462 -0.9984  0.5632 -0.4285
19800SOL    HW259579   6.524   3.046   1.594  0.1797 -0.8393 -0.0850
19801SOL     OW59580   7.640   3.092   0.063 -0.3541  0.0637  0.7853
19801SOL    HW159581   7.682   3.153  -0.004 -1.3792 -0.3268 -0.2278
19801SOL    HW259582   7.689   3.004   0.063 -1.1728 -0.4197 -0.4569
19802SOL     OW59583   1.871   0.659   4.712 -0.3564 -0.3752 -0.5729
19802SOL    HW159584   1.830   0.610   4.789 -0.7474  1.6232  0.5534
19802SOL    HW259585   1.831   0.625   4.627  1.0270 -3.5560 -0.1003
19803SOL     OW59586   3.279   0.066   0.226 -0.1596 -0.1000 -0.2414
19803SOL    HW159587   3.222   0.086   0.146  0.6790  1.5327 -0.4506
19803SOL    HW259588   3.221   0.059   0.307 -0.8018  0.2021 -0.6689
19804SOL     OW59589   8.567   6.817   4.453  0.5057 -0.0608 -0.3506
19804SOL    HW159590   8.650   6.780   4.412  0.7610 -0.6208  0.6318
19804SOL    HW259591   8.496   6.825   4.384  0.2989 -2.7803 -0.5736
19805SOL     OW59592   3.331   2.388   8.680  0.0687 -0.1829  0.5375
19805SOL    HW159593   3.306   2.386   8.777 -0.7927  0.7267  0.3476
19805SOL    HW259594   3.299   2.473   8.639  1.4825 -0.0127 -0.2754
19806SOL     OW59595   5.226   6.572   0.120  0.1983  0.2550  0.2691
19806SOL    HW159596   5.260   6.479   0.131 -0.0760  0.3039  1.7123
19806SOL    HW259597   5.210   6.613   0.210  0.6485  1.8297 -0.3305
19807SOL     OW59598   2.250   1.051   8.379  0.0287  0.4877 -1.0324
19807SOL    HW159599   2.256   0.954   8.403 -2.3303  0.5938  0.2571
19807SOL    HW259600   2.341   1.085   8.357  0.9294 -1.9932 -1.5007
19808SOL     OW59601   8.412   1.545   6.253 -0.2674  0.2490 -0.2641
19808SOL    HW159602   8.438   1.557   6.157 -0.0030 -0.7476 -0.3326
19808SOL    HW259603   8.490   1.568   6.311  0.2960 -1.1768 -0.4006
19809SOL     OW59604   7.378   4.956   2.593 -0.2356  0.8124  0.1043
19809SOL    HW159605   7.358   4.988   2.500 -0.4400 -0.1034 -0.1784
19809SOL    HW259606   7.355   4.859   2.600  0.6065  0.6528  0.8553
19810SOL     OW59607   5.556   3.783   8.627 -0.0543 -0.1234  0.5717
19810SOL    HW159608   5.479   3.843   8.649 -0.2437 -0.3521  0.5285
19810SOL    HW259609   5.641   3.826   8.659 -0.1886  0.1646  0.5524
19811SOL     OW59610   2.164   6.494   2.131 -0.1256 -0.4383 -0.5793
19811SOL    HW159611   2.108   6.456   2.058  0.6591 -1.3393 -0.7285
19811SOL    HW259612   2.184   6.423   2.199  2.0160 -0.5577 -1.2569
19812SOL     OW59613   2.876   7.211   1.342 -0.3497 -0.1914 -0.0986
19812SOL    HW159614   2.918   7.189   1.254 -0.6834  1.7469 -0.7755
19812SOL    HW259615   2.781   7.181   1.342 -0.0129 -1.3237  0.1020
19813SOL     OW59616   1.665   7.963   6.855 -0.1274  0.0694 -0.3358
19813SOL    HW159617   1.717   7.998   6.933 -1.3804  1.1240  0.0595
19813SOL    HW259618   1.577   8.010   6.849  0.1505  0.4368 -2.7267
19814SOL     OW59619   3.238   2.303   1.590  0.9318  0.0167 -0.0691
19814SOL    HW159620   3.286   2.325   1.506 -0.5638 -1.0512 -1.2794
19814SOL    HW259621   3.173   2.229   1.572  0.9823 -0.6457  2.1792
19815SOL     OW59622   4.488   4.171   5.196 -0.2709 -0.3718 -0.4845
19815SOL    HW159623   4.432   4.115   5.256 -0.0722 -2.0742 -1.8133
19815SOL    HW259624   4.432   4.206   5.121 -0.3130  0.9523  0.1377
19816SOL     OW59625   6.921   2.785   7.774 -0.1228 -0.0394 -0.0161
19816SOL    HW159626   6.865   2.836   7.839 -1.6544 -0.6349 -0.8133
19816SOL    HW259627   6.902   2.687   7.783  0.2225 -0.1906 -0.8391
19817SOL     OW59628   8.832   5.075   6.130  0.3617 -0.2039 -0.5129
19817SOL    HW159629   8.807   5.099   6.223 -1.8842  0.7729 -1.2848
19817SOL    HW259630   8.827   4.975   6.119 -5.5139 -0.2106 -0.9386
19818SOL     OW59631   1.515   4.593   5.370 -0.4641 -0.3169  0.4345
19818SOL    HW159632   1.549   4.640   5.452 -1.4487 -0.4107  0.9178
19818SOL    HW259633   1.495   4.661   5.299  1.0133 -0.2934  0.0243
19819SOL     OW59634   6.582   6.121   5.367  0.0018  0.2641 -0.1306
19819SOL    HW159635   6.530   6.082   5.292 -0.5361 -0.6114  0.6713
19819SOL    HW259636   6.602   6.049   5.434  0.2829  1.0657  0.6609
19820SOL     OW59637   3.708   7.963   5.261 -0.2139  0.2655  0.2403
19820SOL    HW159638   3.749   7.875   5.236 -0.9823 -0.7884  2.4251
19820SOL    HW259639   3.676   8.010   5.179  1.2536 -0.9532 -1.0762
19821SOL     OW59640   5.055   7.864   7.301  0.2131  0.1060 -0.3233
19821SOL    HW159641   5.130   7.863   7.235 -0.3216 -1.4628 -0.9663
19821SOL    HW259642   4.977   7.812   7.264 -0.8777  0.9593  0.6814
19822SOL     OW59643   1.390   3.356   6.295  0.2734 -0.2624 -0.2187
19822SOL    HW159644   1.381   3.272   6.347  0.9255 -1.6608 -2.2289
19822SOL    HW259645   1.326   3.355   6.218  0.9841  0.5987 -0.8487
19823SOL     OW59646   7.152   1.704   4.352 -1.0483 -0.1656  0.2727
19823SOL    HW159647   7.184   1.686   4.445 -0.5928  0.4371  0.2401
19823SOL    HW259648   7.072   1.763   4.355 -1.6499 -0.9757  0.3200
19824SOL     OW59649   0.930   5.365   3.400 -0.2862  0.3429  0.0338
19824SOL    HW159650   0.936   5.447   3.343 -1.6111  2.2065  2.3995
19824SOL    HW259651   0.849   5.370   3.458  1.2401 -1.1058  2.5064
19825SOL     OW59652   6.787   3.462   7.741  0.1334 -0.1321 -0.1133
19825SOL    HW159653   6.793   3.364   7.720 -0.8484  0.0140 -1.1709
19825SOL    HW259654   6.699   3.481   7.784  0.9521  0.0581  1.5686
19826SOL     OW59655   7.609   0.857   8.327 -0.2346  0.8839  0.0803
19826SOL    HW159656   7.604   0.952   8.296 -1.8694  1.0645  0.8346
19826SOL    HW259657   7.705   0.828   8.327  0.1311  1.9010 -1.9855
19827SOL     OW59658   6.618   3.117   1.943 -0.0820  0.0581 -0.4036
19827SOL    HW159659   6.594   3.034   1.992 -1.8203 -0.6223 -2.2799
19827SOL    HW259660   6.537   3.174   1.932  0.3962  0.5006 -1.8815
19828SOL     OW59661   6.891   7.649   5.157  0.0843  0.3032 -0.3240
19828SOL    HW159662   6.852   7.592   5.085  0.0124  0.7598 -0.6479
19828SOL    HW259663   6.821   7.674   5.223 -0.2962  1.5039 -1.1507
19829SOL     OW59664   4.378   4.411   8.259 -0.7424 -0.1983  0.2634
19829SOL    HW159665   4.347   4.321   8.229 -0.0506 -1.0542  1.9682
19829SOL    HW259666   4.453   4.443   8.200  0.3399 -1.6501  0.7932
19830SOL     OW59667   5.363   2.610   7.404  0.0325  0.0112  0.4282
19830SOL    HW159668   5.391   2.700   7.438  2.0010 -0.6980  0.7935
19830SOL    HW259669   5.289   2.621   7.338  0.4503  1.9205  0.2324
19831SOL     OW59670   7.450   8.604   7.073  0.4212  0.3949  0.1467
19831SOL    HW159671   7.456   8.588   6.974 -1.2103  2.5858 -0.3799
19831SOL    HW259672   7.357   8.583   7.104  1.2300 -1.3933  1.4982
19832SOL     OW59673   3.014   4.841   5.010  0.1703  0.0990 -0.1123
19832SOL    HW159674   2.987   4.776   4.939 -2.2875  0.5293  0.3652
19832SOL    HW259675   3.032   4.792   5.095 -0.6005 -0.0610 -0.0402
19833SOL     OW59676   8.506   0.660   2.412  0.1085 -0.1779 -0.0458
19833SOL    HW159677   8.471   0.753   2.425  1.6176  0.4435 -0.1778
19833SOL    HW259678   8.532   0.621   2.501 -1.0701 -0.7165  0.0756
19834SOL     OW59679   0.277   6.804   1.821  0.4049 -0.1739 -0.8391
19834SOL    HW159680   0.358   6.793   1.765 -0.1345  1.0404 -1.9045
19834SOL    HW259681   0.300   6.855   1.904  1.1071 -1.5730 -0.1342
19835SOL     OW59682   1.820   0.715   6.690  0.0086  0.2970 -0.0083
19835SOL    HW159683   1.888   0.645   6.669 -0.8326 -0.4081 -0.4549
19835SOL    HW259684   1.764   0.734   6.609  0.3549  1.6512  0.0425
19836SOL     OW59685   7.478   0.999   7.486 -0.0925  0.5081 -0.2968
19836SOL    HW159686   7.475   1.089   7.442  0.9467  0.5912 -0.2206
19836SOL    HW259687   7.528   1.005   7.572 -2.0971  0.3425  0.9264
19837SOL     OW59688   7.230   0.816   0.657  0.4383 -0.1615  0.0691
19837SOL    HW159689   7.292   0.852   0.588 -0.8451  0.5911 -0.7319
19837SOL    HW259690   7.213   0.887   0.726  0.6339 -0.4340  0.3964
19838SOL     OW59691   7.445   6.181   0.637  0.2159 -0.2458 -0.2386
19838SOL    HW159692   7.433   6.280   0.627  0.1558 -0.2709 -0.4060
19838SOL    HW259693   7.540   6.157   0.614 -0.4512 -0.6028 -2.9773
19839SOL     OW59694   2.358   5.375   7.316 -0.4539 -0.3073 -0.8754
19839SOL    HW159695   2.416   5.349   7.393  0.9020  1.1010 -1.3691
19839SOL    HW259696   2.262   5.372   7.344 -0.0366 -0.6803  0.5980
19840SOL     OW59697   8.559   1.066   5.203 -0.3529  0.9164  0.0317
19840SOL    HW159698   8.554   1.151   5.256  2.6131  0.4807  1.2672
19840SOL    HW259699   8.641   1.068   5.146 -0.4271 -0.9581 -0.1996
19841SOL     OW59700   2.997   6.435   1.870  0.0876  0.2252 -0.1617
19841SOL    HW159701   3.053   6.405   1.947 -0.2518  2.4214  1.0258
19841SOL    HW259702   3.051   6.495   1.811 -0.9304  2.4404  1.0468
19842SOL     OW59703   8.008   7.034   4.563 -0.1540 -0.7496  0.2012
19842SOL    HW159704   7.983   7.042   4.660 -1.8338 -0.4312 -0.2350
19842SOL    HW259705   7.953   6.964   4.519  0.7246 -1.0169 -0.5094
19843SOL     OW59706   2.185   2.833   7.265  0.4061  0.6101  0.2708
19843SOL    HW159707   2.164   2.853   7.361 -1.0955 -1.5552  0.4756
19843SOL    HW259708   2.112   2.871   7.207  1.0320  1.4428  0.0090
19844SOL     OW59709   8.139   6.749   1.856 -0.2880 -0.6994 -0.3083
19844SOL    HW159710   8.217   6.697   1.820 -0.3482 -0.1453 -1.2684
19844SOL    HW259711   8.156   6.847   1.844 -1.1594 -0.5764 -0.5790
19845SOL     OW59712   1.474   8.088   3.677  0.5742 -0.1910 -0.3495
19845SOL    HW159713   1.531   8.049   3.750  0.9264  2.0645  0.6605
19845SOL    HW259714   1.381   8.054   3.686  0.3354  0.8258  1.8976
19846SOL     OW59715   8.337   0.793   1.731  0.3034  0.2582  0.2069
19846SOL    HW159716   8.252   0.828   1.771  0.5501  1.3803 -0.1997
19846SOL    HW259717   8.369   0.714   1.783 -1.5429 -0.8511 -0.2563
19847SOL     OW59718   6.132   2.922   2.903 -0.0214  0.0892 -0.3371
19847SOL    HW159719   6.174   3.004   2.863 -0.8400  0.5830 -0.2164
19847SOL    HW259720   6.033   2.934   2.906 -0.0425 -0.2865  1.0505
19848SOL     OW59721   4.827   6.418   2.119 -0.1866 -0.4011  0.1738
19848SOL    HW159722   4.745   6.459   2.080  0.5673  0.8411 -0.1727
19848SOL    HW259723   4.826   6.319   2.102 -1.0710 -0.2422 -0.8020
19849SOL     OW59724   5.109   1.343   8.079  0.0951 -0.2617 -0.1890
19849SOL    HW159725   5.053   1.318   8.158 -2.7102  0.4859 -1.8050
19849SOL    HW259726   5.205   1.324   8.099 -0.4346  0.2781  3.4987
19850SOL     OW59727   4.750   6.417   0.237  0.1191  0.2663 -0.3157
19850SOL    HW159728   4.797   6.349   0.294  0.5838  0.4037 -0.5282
19850SOL    HW259729   4.693   6.475   0.295  0.8621  0.6313  0.0674
19851SOL     OW59730   7.113   1.771   6.685 -0.5783  0.2099  0.0612
19851SOL    HW159731   7.032   1.735   6.732 -0.2575 -2.0287 -0.9925
19851SOL    HW259732   7.167   1.824   6.750 -1.7773 -0.0872  1.3604
19852SOL     OW59733   7.915   0.754   5.942 -0.2993 -0.2654  0.2135
19852SOL    HW159734   7.846   0.788   5.878  1.1779  0.3356 -1.1374
19852SOL    HW259735   7.876   0.751   6.034 -2.4747 -1.0638 -0.6494
19853SOL     OW59736   2.348   2.242   3.176  0.1720  0.1294 -0.3121
19853SOL    HW159737   2.393   2.172   3.232 -0.8439  0.4893  1.0118
19853SOL    HW259738   2.298   2.305   3.236  1.4438  2.2929 -1.4554
19854SOL     OW59739   2.052   4.780   5.636  0.2974  0.1328 -0.0280
19854SOL    HW159740   2.134   4.746   5.683  0.0864 -1.6759 -0.8884
19854SOL    HW259741   1.973   4.767   5.696  0.4597  0.8428  0.3583
19855SOL     OW59742   6.596   3.812   4.464  0.2476  0.1208  0.2017
19855SOL    HW159743   6.567   3.748   4.535 -2.0301  0.3552 -0.4504
19855SOL    HW259744   6.663   3.768   4.404  1.2343 -0.5001  1.6966
19856SOL     OW59745   5.695   1.096   5.532 -0.1983 -0.5970  0.6591
19856SOL    HW159746   5.692   1.023   5.464  1.8747  1.1950 -1.5638
19856SOL    HW259747   5.602   1.128   5.552 -0.8809 -0.0805 -2.7280
19857SOL     OW59748   5.698   4.423   5.693  0.1905 -1.1829 -0.7797
19857SOL    HW159749   5.610   4.466   5.710  2.1022  1.7554  3.2870
19857SOL    HW259750   5.763   4.492   5.660  2.0173 -2.1956  0.5220
19858SOL     OW59751   0.982   3.415   8.194 -0.2741 -0.0823 -0.0651
19858SOL    HW159752   1.075   3.387   8.171 -0.4620  0.5520 -1.7514
19858SOL    HW259753   0.929   3.428   8.109 -1.5257  0.7809  0.8094
19859SOL     OW59754   3.604   4.980   0.563 -0.1845  0.6743 -0.3316
19859SOL    HW159755   3.546   5.053   0.600  0.8489  1.1695  0.3528
19859SOL    HW259756   3.558   4.892   0.575 -0.8059  1.0579  0.1665
19860SOL     OW59757   4.788   4.201   2.630  0.1442  0.2283  0.2310
19860SOL    HW159758   4.882   4.224   2.608 -0.1358  0.7993 -0.4250
19860SOL    HW259759   4.762   4.116   2.582  0.4367 -0.1346  0.7129
19861SOL     OW59760   1.592   0.344   6.756 -0.0835  0.4094  0.5687
19861SOL    HW159761   1.551   0.422   6.802  0.0237 -0.3726  2.0526
19861SOL    HW259762   1.609   0.271   6.823  1.7230 -0.1113 -0.4080
19862SOL     OW59763   5.676   4.467   2.194 -0.6673  0.3261 -0.1392
19862SOL    HW159764   5.752   4.530   2.176 -0.1022  0.0854  1.2152
19862SOL    HW259765   5.676   4.443   2.291 -0.8902 -1.7458 -0.6111
19863SOL     OW59766   6.350   8.808   5.896 -0.3479 -0.1895 -0.5553
19863SOL    HW159767   6.364   8.853   5.984 -0.1382  2.6281 -1.8894
19863SOL    HW259768   6.274   8.743   5.903 -1.0970  0.8119  1.4310
19864SOL     OW59769   7.231   3.246   6.513 -0.1146  0.0892 -0.4134
19864SOL    HW159770   7.147   3.294   6.537  0.0460 -0.5193  1.6105
19864SOL    HW259771   7.213   3.179   6.441 -1.1957  0.4920 -0.5219
19865SOL     OW59772   8.249   0.850   2.280  0.0305  0.3054 -0.4300
19865SOL    HW159773   8.287   0.877   2.191  0.2322  0.5010 -0.2827
19865SOL    HW259774   8.310   0.879   2.353 -0.6294  1.0453 -0.1603
19866SOL     OW59775   1.379   7.151   0.389  0.6730 -0.1425 -0.0728
19866SOL    HW159776   1.478   7.137   0.396  0.6744  0.5123  2.2628
19866SOL    HW259777   1.332   7.068   0.417  0.5676 -0.2134 -0.4617
19867SOL     OW59778   4.617   4.575   0.029 -0.1079 -0.2030  0.7559
19867SOL    HW159779   4.550   4.554   0.100  1.9884 -2.2450  2.2961
19867SOL    HW259780   4.679   4.646   0.063 -0.4303  0.4325  0.0350
19868SOL     OW59781   3.151   6.974   0.953  0.2607 -1.0289  0.3578
19868SOL    HW159782   3.237   7.005   0.913  0.8365  0.2533  2.4198
19868SOL    HW259783   3.168   6.898   1.016 -0.1000 -0.8127  0.7268
19869SOL     OW59784   6.434   6.978   6.201 -0.1423 -0.2782  0.3044
19869SOL    HW159785   6.365   7.018   6.261 -1.0352 -0.9613 -0.2332
19869SOL    HW259786   6.389   6.921   6.133  0.7703  0.9420 -1.4122
19870SOL     OW59787   0.015   0.783   0.555 -0.8300  0.1646  0.0928
19870SOL    HW159788   0.077   0.839   0.610 -0.3421 -0.2418 -0.0363
19870SOL    HW259789  -0.042   0.728   0.616  0.6508 -1.3083  0.2038
19871SOL     OW59790   7.919   3.002   1.675 -0.4743  0.2322 -0.5840
19871SOL    HW159791   7.878   2.957   1.754  1.8628  0.1713  0.6881
19871SOL    HW259792   7.955   3.091   1.703  2.5344 -0.7789 -0.8829
19872SOL     OW59793   4.806   1.393   8.142 -0.1081  0.0440 -0.0978
19872SOL    HW159794   4.882   1.401   8.077  0.4616  1.2045  0.6789
19872SOL    HW259795   4.733   1.456   8.116  0.8267  1.7891  1.2766
19873SOL     OW59796   4.206   5.702   6.202 -0.9336 -0.4317 -0.3115
19873SOL    HW159797   4.300   5.668   6.196  0.3969  2.8327 -0.4085
19873SOL    HW259798   4.166   5.675   6.289  1.1584  0.3604  0.9755
19874SOL     OW59799   3.522   1.675   3.804  0.1413  0.0960  0.0304
19874SOL    HW159800   3.510   1.765   3.762  1.5604 -0.6357 -2.1492
19874SOL    HW259801   3.595   1.626   3.757 -0.8268 -2.3572  0.9028
19875SOL     OW59802   1.309   3.572   1.475  0.2782  0.2970  0.3606
19875SOL    HW159803   1.309   3.602   1.379 -2.1527 -1.2164 -0.1842
19875SOL    HW259804   1.392   3.518   1.492  0.2583 -0.3019 -1.2278
19876SOL     OW59805   6.209   7.952   6.517  0.4062 -0.1584 -0.0392
19876SOL    HW159806   6.138   8.017   6.489 -0.2993 -1.3956 -1.3110
19876SOL    HW259807   6.173   7.892   6.589  0.1442 -0.7649 -0.6612
19877SOL     OW59808   7.509   6.367   0.156 -0.4897 -0.5099 -0.6019
19877SOL    HW159809   7.519   6.466   0.168 -1.0786 -0.4899 -0.2346
19877SOL    HW259810   7.490   6.325   0.244  0.0263 -0.9894 -0.7142
19878SOL     OW59811   2.666   7.911   4.926  0.2735 -0.0482  0.3904
19878SOL    HW159812   2.608   7.921   5.007 -0.6879  0.9175 -0.3750
19878SOL    HW259813   2.644   7.825   4.879  0.8733 -0.6359  1.1673
19879SOL     OW59814   0.878   0.335   4.458 -0.4182 -0.1814  0.1417
19879SOL    HW159815   0.841   0.428   4.464  0.0152  0.0911 -1.1787
19879SOL    HW259816   0.817   0.278   4.402  1.0059  0.2196 -1.8964
19880SOL     OW59817   8.687   3.238   2.093  0.3843 -0.0510 -0.2451
19880SOL    HW159818   8.729   3.263   2.007  0.6776  0.5255  0.0598
19880SOL    HW259819   8.618   3.167   2.078 -1.4372  1.8574 -1.3417
19881SOL     OW59820   0.975   6.049   4.164 -0.4553  0.3946 -0.3431
19881SOL    HW159821   0.956   6.131   4.109 -0.3148 -0.1031 -1.1445
19881SOL    HW259822   0.891   6.019   4.209 -0.8600  0.0635 -1.3099
19882SOL     OW59823   2.798   1.775   0.961 -0.4260  0.9144  0.4163
19882SOL    HW159824   2.858   1.833   0.906 -0.8908  2.2296  1.2449
19882SOL    HW259825   2.735   1.727   0.901  3.1455 -2.7907 -0.8365
19883SOL     OW59826   1.041   5.672   0.325 -0.1895 -0.2551  0.7658
19883SOL    HW159827   1.056   5.593   0.266 -1.2203 -0.6036  0.9479
19883SOL    HW259828   1.094   5.750   0.291  0.6844 -0.9653  0.4762
19884SOL     OW59829   2.209   0.432   4.466  0.0614 -0.1613  0.4231
19884SOL    HW159830   2.250   0.495   4.400 -0.4995 -0.5118 -0.2661
19884SOL    HW259831   2.112   0.452   4.476  0.1004 -0.2279  1.0192
19885SOL     OW59832   6.448   7.627   2.629  0.0560  0.5307  0.3767
19885SOL    HW159833   6.517   7.622   2.556 -0.4049 -0.0527 -0.0296
19885SOL    HW259834   6.439   7.722   2.659  0.3747  0.7552 -0.2099
19886SOL     OW59835   6.848   7.358   4.729  1.1721 -0.0768 -0.1834
19886SOL    HW159836   6.930   7.411   4.707  0.4722  1.0571 -0.1318
19886SOL    HW259837   6.779   7.372   4.657  1.2808 -1.6369 -0.6342
19887SOL     OW59838   3.259   1.766   0.203  0.3133 -0.2815 -0.0427
19887SOL    HW159839   3.256   1.667   0.187  0.0540 -0.0432 -1.6379
19887SOL    HW259840   3.242   1.814   0.117  0.3828  1.1617  0.7214
19888SOL     OW59841   0.809   6.118   5.723 -0.2307 -0.1585 -0.2476
19888SOL    HW159842   0.776   6.149   5.634  0.6378  0.1594 -0.4762
19888SOL    HW259843   0.902   6.083   5.713  0.4147  1.1618  0.7551
19889SOL     OW59844   8.277   3.045   1.055 -0.2481  0.0230 -0.4883
19889SOL    HW159845   8.377   3.039   1.048 -0.1970  1.3098 -1.1394
19889SOL    HW259846   8.235   2.977   0.996  0.2654  1.2067 -2.3106
19890SOL     OW59847   2.987   6.033   8.026 -0.1966  0.2611  0.1400
19890SOL    HW159848   2.930   5.966   8.072  0.0449  1.5453  2.4290
19890SOL    HW259849   2.957   6.125   8.050  1.9396  0.9844  0.2699
19891SOL     OW59850   1.485   0.577   0.627 -0.7182  0.1679  0.3966
19891SOL    HW159851   1.413   0.646   0.637 -2.1411 -0.6718 -2.8217
19891SOL    HW259852   1.468   0.501   0.689 -2.6099  0.0331 -0.2261
19892SOL     OW59853   1.246   4.058   3.976 -0.2610  0.7130 -0.0341
19892SOL    HW159854   1.303   3.978   3.994 -1.0880 -0.5440 -2.5160
19892SOL    HW259855   1.300   4.141   3.989  1.2236 -0.3057  0.6370
19893SOL     OW59856   5.958   6.287   7.965  0.4476 -0.2567  0.1615
19893SOL    HW159857   5.925   6.200   7.929 -2.7025  0.0932  1.8357
19893SOL    HW259858   6.053   6.277   7.994  0.7616 -2.5672 -1.3786
19894SOL     OW59859   2.282   1.985   8.268 -0.1562 -0.1777  0.5552
19894SOL    HW159860   2.198   1.976   8.321 -0.3269 -3.8729 -0.0487
19894SOL    HW259861   2.361   1.981   8.329 -0.3697  1.3613  0.9571
19895SOL     OW59862   1.518   7.050   3.337 -0.2503  0.2241  0.5161
19895SOL    HW159863   1.560   7.139   3.357 -1.1114  0.1019  3.3885
19895SOL    HW259864   1.421   7.053   3.362 -0.0255 -1.8201  1.8924
19896SOL     OW59865   5.245   2.465   1.652  0.1847  0.9370  1.2226
19896SOL    HW159866   5.220   2.556   1.621 -0.9197  0.2992  0.1589
19896SOL    HW259867   5.176   2.431   1.717 -0.2994  0.2351  0.3648
19897SOL     OW59868   0.859   0.318   5.254  0.5048  0.1919  0.2074
19897SOL    HW159869   0.801   0.387   5.296  0.4653 -0.1735  0.7674
19897SOL    HW259870   0.948   0.357   5.232 -0.0865  0.8722 -1.0488
19898SOL     OW59871   1.487   4.754   5.150  0.4953 -0.4790  0.5041
19898SOL    HW159872   1.408   4.711   5.106  0.7034 -0.4743  0.1179
19898SOL    HW259873   1.496   4.848   5.115 -1.4702  0.8388  3.1692
19899SOL     OW59874   6.184   5.010   8.048 -0.0170 -0.0734 -0.7088
19899SOL    HW159875   6.181   5.039   8.143  1.7128 -0.3762 -0.5309
19899SOL    HW259876   6.273   4.969   8.028 -1.4075 -2.9888 -1.5949
19900SOL     OW59877   4.250   6.691   7.657 -0.0322 -0.0723 -0.8072
19900SOL    HW159878   4.236   6.651   7.567  0.9862  0.0440 -1.0228
19900SOL    HW259879   4.307   6.772   7.649  0.4441 -0.3165 -0.0110
19901SOL     OW59880   5.822   4.932   7.222  0.2322  0.4755 -0.1609
19901SOL    HW159881   5.914   4.930   7.260 -0.1763 -2.1406  0.9100
19901SOL    HW259882   5.770   4.854   7.255 -1.7244  0.6750 -2.4169
19902SOL     OW59883   8.170   0.309   8.396 -0.5274 -0.0595 -0.2593
19902SOL    HW159884   8.073   0.331   8.402 -0.3630  1.4565 -2.2477
19902SOL    HW259885   8.190   0.266   8.308  0.8900  1.5949 -0.8148
19903SOL     OW59886   8.507   5.480   7.888 -0.2771 -0.2982  0.3668
19903SOL    HW159887   8.534   5.576   7.898 -2.5979  0.3315  1.2614
19903SOL    HW259888   8.539   5.428   7.967  1.6816 -0.4885 -0.4995
19904SOL     OW59889   6.611   8.416   4.271 -0.2859  0.4821  0.2839
19904SOL    HW159890   6.562   8.410   4.184 -0.0462 -2.1167  0.2383
19904SOL    HW259891   6.696   8.466   4.259  1.7695 -3.1433 -2.1161
19905SOL     OW59892   6.791   1.702   2.175 -0.2089 -0.2197 -0.2806
19905SOL    HW159893   6.809   1.714   2.077  2.8080  0.3922  0.2416
19905SOL    HW259894   6.789   1.604   2.196  1.6171 -0.3794 -0.6463
19906SOL     OW59895   1.887   0.286   0.288 -0.1488 -0.2828  0.0205
19906SOL    HW159896   1.974   0.249   0.321 -1.1721 -1.0413  2.0343
19906SOL    HW259897   1.838   0.215   0.238 -0.1712 -0.2473 -0.0078
19907SOL     OW59898   3.797   1.736   2.578  0.2848 -0.5174  0.2757
19907SOL    HW159899   3.777   1.641   2.600  1.2486 -1.2145 -1.6325
19907SOL    HW259900   3.748   1.796   2.642 -0.2942 -2.2610  1.5558
19908SOL     OW59901   0.206   1.849   0.493 -0.0052  0.0987 -0.3261
19908SOL    HW159902   0.178   1.764   0.449 -0.2593 -0.7140  1.3108
19908SOL    HW259903   0.141   1.872   0.566  0.1196  1.6482 -0.6644
19909SOL     OW59904   7.708   5.111   7.702 -0.7953 -0.0977  0.4650
19909SOL    HW159905   7.612   5.135   7.719 -1.1736  1.1430 -2.6785
19909SOL    HW259906   7.766   5.189   7.726 -1.0429  0.6260 -1.1493
19910SOL     OW59907   3.169   0.651   7.767  0.1196  0.4316 -0.0632
19910SOL    HW159908   3.247   0.653   7.830 -1.5656 -3.1026  2.4707
19910SOL    HW259909   3.113   0.733   7.780  0.9006  0.7407  1.5545
19911SOL     OW59910   4.876   1.746   5.842  0.1110  0.0731 -0.1415
19911SOL    HW159911   4.921   1.795   5.767  0.6948 -0.2274  0.0054
19911SOL    HW259912   4.785   1.786   5.858  0.4376  0.8899 -0.2469
19912SOL     OW59913   6.728   1.030   2.907  0.4932 -0.6011  0.4092
19912SOL    HW159914   6.666   1.073   2.972 -0.1945 -0.6696 -0.1765
19912SOL    HW259915   6.676   1.005   2.825  1.2662 -0.8357 -0.0124
19913SOL     OW59916   7.934   2.093   5.664  0.0227  0.5005 -0.6232
19913SOL    HW159917   7.990   2.094   5.747  1.2004 -1.9574 -1.3182
19913SOL    HW259918   7.984   2.138   5.590  0.1761  0.1999 -0.7034
19914SOL     OW59919   1.715   4.908   6.525 -0.7652  0.6490 -0.2294
19914SOL    HW159920   1.637   4.872   6.474  0.3135 -0.4526 -1.1825
19914SOL    HW259921   1.718   4.866   6.615 -0.6853 -0.1259 -0.5859
19915SOL     OW59922   6.671   5.260   5.539  0.0423  1.0304  0.6385
19915SOL    HW159923   6.605   5.249   5.613  1.4485  0.4450  1.8361
19915SOL    HW259924   6.625   5.241   5.452 -1.3073  0.3919  1.4481
19916SOL     OW59925   2.823   3.389   7.157 -0.5001  0.4087 -0.6144
19916SOL    HW159926   2.801   3.476   7.112 -1.2952  0.5727  0.0623
19916SOL    HW259927   2.770   3.381   7.241 -0.5966 -0.8286 -0.7776
19917SOL     OW59928   8.430   7.221   3.385 -0.1738  0.2563  0.6949
19917SOL    HW159929   8.513   7.195   3.336  0.1742  1.2586  0.7370
19917SOL    HW259930   8.444   7.212   3.483 -0.5716 -0.8774  0.6576
19918SOL     OW59931   0.544   7.229   2.046 -0.5096 -0.4587  0.4217
19918SOL    HW159932   0.596   7.311   2.070 -2.3412  0.5567  1.1334
19918SOL    HW259933   0.581   7.151   2.096  0.2750  0.2412  0.9754
19919SOL     OW59934   4.070   1.009   5.450  0.4165  0.4571  0.2938
19919SOL    HW159935   4.163   1.019   5.412  0.3352  0.5748  0.1245
19919SOL    HW259936   4.059   1.069   5.528  1.4828 -1.6998  2.2177
19920SOL     OW59937   2.437   5.658   5.540  0.0285 -0.0566  0.3845
19920SOL    HW159938   2.438   5.581   5.475  0.3060  0.2645 -0.0010
19920SOL    HW259939   2.513   5.648   5.604  0.2780  0.0739  0.1139
19921SOL     OW59940   4.864   2.498   8.370 -0.3401  0.3623  0.5457
19921SOL    HW159941   4.833   2.415   8.324  0.9550  0.2477 -0.1693
19921SOL    HW259942   4.790   2.565   8.372 -1.1811 -0.5497  0.5196
19922SOL     OW59943   1.211   6.307   3.849  0.2335  0.1690  0.0735
19922SOL    HW159944   1.199   6.375   3.921 -0.2145 -1.0037  1.1637
19922SOL    HW259945   1.274   6.236   3.881  0.9403  0.2236 -1.1527
19923SOL     OW59946   6.309   8.577   6.571 -0.5467 -0.4523  0.3902
19923SOL    HW159947   6.384   8.578   6.505 -0.6816 -1.3635  0.2028
19923SOL    HW259948   6.223   8.599   6.526 -0.4464  0.2511  0.5360
19924SOL     OW59949   4.113   2.633   4.183 -0.1519  0.3106  0.1519
19924SOL    HW159950   4.166   2.689   4.246 -0.8318  0.7879  0.3063
19924SOL    HW259951   4.172   2.602   4.108  0.6180 -0.1193  0.9202
19925SOL     OW59952   1.125   6.197   7.795  0.3878 -0.4246  0.2076
19925SOL    HW159953   1.180   6.273   7.831 -1.6306  0.8965  0.6480
19925SOL    HW259954   1.157   6.174   7.704  1.3734  0.6117  0.2638
19926SOL     OW59955   7.908   5.798   0.946  0.4842 -0.3289  0.1872
19926SOL    HW159956   7.982   5.817   1.010  1.1082 -3.4012  0.5233
19926SOL    HW259957   7.895   5.699   0.938 -1.7752  0.0392 -1.9746
19927SOL     OW59958   7.269   7.418   1.407 -0.5011  0.1454 -0.1198
19927SOL    HW159959   7.263   7.370   1.320  0.7041  0.3461 -0.3227
19927SOL    HW259960   7.361   7.408   1.445 -0.9786  0.1115  1.1092
19928SOL     OW59961   5.722   4.970   0.388  0.4047  0.0699  0.9346
19928SOL    HW159962   5.633   5.008   0.412  0.1632 -0.3482  0.7054
19928SOL    HW259963   5.720   4.870   0.400  0.3005 -0.1579 -0.7067
19929SOL     OW59964   2.290   8.251   2.150 -0.1079  0.2477 -0.1429
19929SOL    HW159965   2.282   8.151   2.151  0.1058  0.2356  0.4364
19929SOL    HW259966   2.204   8.291   2.118  0.4105 -0.1808 -2.2131
19930SOL     OW59967   3.098   8.471   7.486  0.1343 -0.0732 -0.1481
19930SOL    HW159968   3.096   8.399   7.555  2.3483  0.2483  0.3163
19930SOL    HW259969   3.089   8.429   7.395  1.7501 -1.0325  0.0850
19931SOL     OW59970   7.222   4.850   1.251 -0.4467 -0.1335  0.0621
19931SOL    HW159971   7.147   4.845   1.185 -0.0277  0.4266 -0.4628
19931SOL    HW259972   7.305   4.881   1.205 -0.2766  0.7693  0.9571
19932SOL     OW59973   3.655   2.740   0.441  0.0696 -0.2168 -0.4042
19932SOL    HW159974   3.640   2.826   0.392  1.6813  0.0842 -0.4305
19932SOL    HW259975   3.618   2.664   0.388 -1.3230  0.4369 -0.4094
19933SOL     OW59976   1.020   3.544   0.517 -0.4787  0.5033 -0.0460
19933SOL    HW159977   0.970   3.461   0.540 -0.2413  0.3095 -0.2212
19933SOL    HW259978   1.083   3.567   0.592  1.2461 -0.8556 -0.9865
19934SOL     OW59979   6.824   2.548   7.174  0.5745  0.2307  0.0453
19934SOL    HW159980   6.867   2.524   7.088 -0.0181 -0.8422  0.0290
19934SOL    HW259981   6.891   2.544   7.248  0.9459  0.5638 -0.2718
19935SOL     OW59982   7.981   6.483   3.684  0.2305  0.4194 -0.4811
19935SOL    HW159983   7.945   6.487   3.777 -0.8576 -0.0310 -0.8632
19935SOL    HW259984   7.967   6.571   3.639  0.6802  0.6109 -0.2558
19936SOL     OW59985   3.687   0.767   6.528  0.1472 -0.2927 -0.4876
19936SOL    HW159986   3.687   0.802   6.622  2.1603 -0.8170 -0.2490
19936SOL    HW259987   3.728   0.676   6.526 -1.4654 -1.0366 -1.6611
19937SOL     OW59988   7.655   3.848   0.240 -0.8805 -0.0728  0.0738
19937SOL    HW159989   7.567   3.879   0.204 -1.1359 -0.2507  0.5377
19937SOL    HW259990   7.652   3.848   0.340  0.0338  1.0207  0.1099
19938SOL     OW59991   2.760   4.306   1.310  0.5825  0.3104  0.6819
19938SOL    HW159992   2.765   4.383   1.246 -1.0083 -0.9861 -1.1153
19938SOL    HW259993   2.853   4.282   1.340  1.6034  0.0506 -2.3515
19939SOL     OW59994   0.385   2.041   2.614  0.3510 -0.1299 -0.0691
19939SOL    HW159995   0.363   1.990   2.532  0.0349 -2.1066  1.1907
19939SOL    HW259996   0.426   2.129   2.589  1.7607 -1.3446 -2.3217
19940SOL     OW59997   7.496   0.414   4.424  0.3471 -0.0307  0.3518
19940SOL    HW159998   7.452   0.503   4.417 -2.0948 -1.1451  0.4007
19940SOL    HW259999   7.546   0.394   4.340 -1.2877  0.3179 -0.7492
19941SOL     OW60000   6.506   6.043   6.418  0.3567 -0.0935  0.6797
19941SOL    HW160001   6.578   6.017   6.353  0.2898  1.4244 -0.0297
19941SOL    HW260002   6.524   5.998   6.506 -0.4033 -3.4541 -0.7141
19942SOL     OW60003   5.347   7.793   3.317  0.6749 -0.3530  0.5575
19942SOL    HW160004   5.247   7.780   3.314  0.5285  0.8238 -0.5520
19942SOL    HW260005   5.387   7.729   3.383 -0.7644 -1.1286  0.7210
19943SOL     OW60006   4.000   7.658   3.610 -0.1042  0.4929 -0.2385
19943SOL    HW160007   3.950   7.625   3.530 -1.4789 -0.2699  0.9096
19943SOL    HW260008   3.970   7.750   3.633 -0.0554  0.5246 -0.2995
19944SOL     OW60009   0.906   3.218   1.835 -0.3817 -0.4628  0.0426
19944SOL    HW160010   0.986   3.226   1.894  0.2376  1.3091 -0.9360
19944SOL    HW260011   0.926   3.157   1.759  0.4300  0.7080 -0.7208
19945SOL     OW60012   2.830   1.484   5.079 -0.0366  0.7278 -0.4732
19945SOL    HW160013   2.851   1.545   5.002  2.1620  0.0256 -0.5076
19945SOL    HW260014   2.735   1.452   5.071 -1.1773  3.8365 -0.5951
19946SOL     OW60015   3.190   1.433   1.038 -0.1413  0.2845  0.2912
19946SOL    HW160016   3.264   1.386   0.990  0.1692 -0.4638  1.4695
19946SOL    HW260017   3.198   1.531   1.025  0.0916  0.1201 -0.9484
19947SOL     OW60018   0.332   5.535   2.161  0.5346  0.1388 -0.7078
19947SOL    HW160019   0.294   5.444   2.179 -1.1409  0.9136 -0.0825
19947SOL    HW260020   0.375   5.570   2.243 -0.2539  0.5417 -0.4539
19948SOL     OW60021   4.465   5.503   7.932  0.3867  0.7372  0.6980
19948SOL    HW160022   4.403   5.579   7.954 -0.0896  0.1507  1.4063
19948SOL    HW260023   4.465   5.489   7.833  0.5119  1.6859  0.5569
19949SOL     OW60024   3.754   7.593   2.429 -0.3315  0.0111  0.0504
19949SOL    HW160025   3.770   7.686   2.395 -2.1105 -0.0172 -0.9994
19949SOL    HW260026   3.797   7.583   2.519  0.5323  1.5943 -0.1481
19950SOL     OW60027   1.395   2.732   8.273  0.2617 -0.0703 -0.3555
19950SOL    HW160028   1.308   2.688   8.252 -0.7047  2.0421 -0.9549
19950SOL    HW260029   1.454   2.729   8.193  0.5081 -0.8812 -0.1600
19951SOL     OW60030   1.583   5.904   5.912 -0.0897  0.2460 -0.0609
19951SOL    HW160031   1.578   5.868   5.819 -0.0290 -1.4100  0.5319
19951SOL    HW260032   1.507   5.868   5.966  0.7841 -0.1551  0.9494
19952SOL     OW60033   4.391   7.416   0.192 -0.1056 -0.0122  0.1167
19952SOL    HW160034   4.355   7.414   0.099 -0.9613  0.1850  0.4366
19952SOL    HW260035   4.490   7.407   0.190  0.0785  1.8269 -0.9437
19953SOL     OW60036   1.346   5.988   1.206  0.0946  0.1565  0.6969
19953SOL    HW160037   1.350   5.968   1.108  0.8003 -0.4116  0.8281
19953SOL    HW260038   1.356   6.086   1.221  2.5494  0.0293  0.3064
19954SOL     OW60039   6.287   5.593   4.572 -0.0695 -0.3074  0.3002
19954SOL    HW160040   6.194   5.596   4.609 -0.5159  0.7339 -0.8412
19954SOL    HW260041   6.348   5.644   4.632 -0.6053  0.5894  0.0971
19955SOL     OW60042   6.021   3.187   3.336  1.3594 -0.1164  0.0091
19955SOL    HW160043   5.944   3.132   3.306  0.2942 -0.8598  3.5842
19955SOL    HW260044   6.107   3.140   3.314  0.6153 -1.2712 -0.4944
19956SOL     OW60045   5.957   8.683   2.282 -0.0147 -0.3805  0.5877
19956SOL    HW160046   5.879   8.746   2.286 -1.3476 -1.8922 -0.1070
19956SOL    HW260047   6.042   8.733   2.299 -0.5893  2.2808 -3.1757
19957SOL     OW60048   8.080   7.488   0.477 -0.4741 -0.2480 -0.4576
19957SOL    HW160049   8.039   7.404   0.441  0.3875 -1.0438  0.3531
19957SOL    HW260050   8.119   7.469   0.568 -2.4859  1.6314  0.9086
19958SOL     OW60051   8.034   4.257   4.761  0.0992 -0.1782 -0.1104
19958SOL    HW160052   8.054   4.350   4.730 -0.6399 -0.3229 -1.0776
19958SOL    HW260053   8.081   4.191   4.701 -1.6694 -0.4741 -1.2300
19959SOL     OW60054   4.361   6.167   4.289  0.9826  0.0857  1.0551
19959SOL    HW160055   4.357   6.238   4.219 -1.9882 -0.2077  0.7685
19959SOL    HW260056   4.305   6.089   4.260  1.7905 -1.1659  2.6503
19960SOL     OW60057   7.769   8.031   0.238  0.0213  0.2253 -0.1514
19960SOL    HW160058   7.803   8.121   0.215 -1.2480  0.3676 -1.5937
19960SOL    HW260059   7.673   8.038   0.266 -0.0472 -0.6515 -0.1414
19961SOL     OW60060   2.995   0.521   2.393  0.0580  0.1829 -0.1738
19961SOL    HW160061   3.031   0.607   2.428  0.8224 -0.0639 -0.3420
19961SOL    HW260062   3.066   0.451   2.395 -0.3523 -0.2605 -0.7128
19962SOL     OW60063   3.599   6.750   7.566 -0.5266 -0.5487 -0.6965
19962SOL    HW160064   3.531   6.773   7.497 -1.1111 -0.0084  0.0518
19962SOL    HW260065   3.689   6.741   7.523 -1.0156 -1.0247 -1.6511
19963SOL     OW60066   2.891   1.097   3.163 -0.2762  0.9414  0.6767
19963SOL    HW160067   2.985   1.067   3.150 -0.8957 -1.3000  0.9388
19963SOL    HW260068   2.858   1.139   3.078  1.0012  1.9658  0.6597
19964SOL     OW60069   7.895   7.256   0.406 -0.0337 -0.0951 -0.1721
19964SOL    HW160070   7.830   7.212   0.468 -1.1795  0.9767 -0.5842
19964SOL    HW260071   7.857   7.257   0.313  0.7706  0.1380 -0.5057
19965SOL     OW60072   0.517   0.299   8.654  0.3429  0.2718  0.3280
19965SOL    HW160073   0.549   0.373   8.713 -0.8236 -0.1323  1.5340
19965SOL    HW260074   0.424   0.319   8.623  0.5481 -0.0355 -0.5035
19966SOL     OW60075   5.761   8.236   7.578  0.0744 -0.4719 -0.9924
19966SOL    HW160076   5.661   8.245   7.573 -0.1267 -1.9645 -0.2380
19966SOL    HW260077   5.785   8.173   7.651  1.5569 -0.6964 -1.6365
19967SOL     OW60078   8.565   6.977   7.079  0.3207 -0.1666 -0.0180
19967SOL    HW160079   8.565   6.939   6.986 -0.0429  0.8600 -0.4608
19967SOL    HW260080   8.658   7.007   7.103  0.2405  0.4551 -0.4477
19968SOL     OW60081   5.172   5.662   6.607  0.1373  0.2257  0.2364
19968SOL    HW160082   5.254   5.714   6.583  0.8281 -0.3296  1.3250
19968SOL    HW260083   5.146   5.683   6.701 -0.0802 -0.7266  0.3970
19969SOL     OW60084   7.458   2.744   0.768 -0.3711 -0.4124  0.9893
19969SOL    HW160085   7.427   2.665   0.717 -0.4839  1.0291 -1.2860
19969SOL    HW260086   7.495   2.813   0.705 -0.8332  1.6156  2.8002
19970SOL     OW60087   7.944   7.122   7.406 -0.2803  0.1106 -0.7562
19970SOL    HW160088   8.034   7.123   7.361 -1.0104 -1.2975 -2.3218
19970SOL    HW260089   7.955   7.155   7.500  1.7251  0.7516 -1.1475
19971SOL     OW60090   2.674   2.479   1.360 -0.0552 -0.1793  0.3091
19971SOL    HW160091   2.677   2.429   1.446  1.4598  1.7010  1.4150
19971SOL    HW260092   2.734   2.434   1.294  0.2355 -0.5881  0.8434
19972SOL     OW60093   8.649   4.273   7.234  0.1635  0.6755  0.2239
19972SOL    HW160094   8.702   4.347   7.192  1.3662 -0.1335  0.2731
19972SOL    HW260095   8.566   4.257   7.181  0.3002  1.5054 -0.2551
19973SOL     OW60096   1.271   5.101   1.719  0.0861 -0.6338  0.3782
19973SOL    HW160097   1.346   5.166   1.723 -0.8016  0.5256 -0.7644
19973SOL    HW260098   1.251   5.079   1.623 -1.2332 -0.6257  0.6277
19974SOL     OW60099   8.413   1.549   0.347 -0.4848  0.7552 -0.3283
19974SOL    HW160100   8.337   1.489   0.375  1.5323 -1.6204  0.3872
19974SOL    HW260101   8.454   1.513   0.263 -0.3899  2.2853 -0.9683
19975SOL     OW60102   3.250   7.459   1.090 -0.4322  0.1354 -0.7171
19975SOL    HW160103   3.311   7.411   1.028 -1.3650  1.0200 -2.3975
19975SOL    HW260104   3.270   7.557   1.088 -0.0115  0.1250  0.9727
19976SOL     OW60105   7.108   5.337   7.963 -0.2845 -0.3971 -0.1313
19976SOL    HW160106   7.100   5.325   8.062 -0.3632  1.2475  0.0827
19976SOL    HW260107   7.205   5.337   7.938 -0.2724 -1.1289 -0.1134
19977SOL     OW60108   0.076   6.379   4.234 -0.6000  0.4082 -0.5696
19977SOL    HW160109   0.051   6.443   4.161 -1.8427 -0.6171 -1.0957
19977SOL    HW260110   0.030   6.292   4.218  1.1872 -0.6964  0.0124
19978SOL     OW60111   1.973   4.435   4.948 -0.1539 -0.1553  0.2516
19978SOL    HW160112   2.054   4.493   4.953  1.2695 -2.0344  0.1612
19978SOL    HW260113   1.906   4.466   5.015  0.1320  2.1300 -0.4560
19979SOL     OW60114   1.301   5.219   5.763  0.3366 -0.2342  0.3159
19979SOL    HW160115   1.365   5.293   5.740  1.3312 -0.6511  1.5740
19979SOL    HW260116   1.334   5.173   5.846 -0.9378 -1.2882  0.2501
19980SOL     OW60117   4.820   7.336   1.001 -0.5729  0.1984  0.4593
19980SOL    HW160118   4.766   7.252   1.003 -0.9948  0.4080 -0.8767
19980SOL    HW260119   4.766   7.409   0.958  0.5289  0.5818 -0.3339
19981SOL     OW60120   0.458   7.870   2.252  0.7035  0.3249  0.3006
19981SOL    HW160121   0.457   7.969   2.268 -0.8935  0.3908 -0.0237
19981SOL    HW260122   0.550   7.842   2.224  0.8967  1.9241 -0.8353
19982SOL     OW60123   4.070   2.975   4.581  0.6323  0.3351  0.2241
19982SOL    HW160124   4.114   2.959   4.493 -0.5742  1.4275 -0.6114
19982SOL    HW260125   4.125   2.934   4.654  1.7085 -0.4888 -1.0133
19983SOL     OW60126   4.302   6.952   2.086  0.3071 -0.1392  0.1509
19983SOL    HW160127   4.325   6.999   2.001 -1.6798  0.7697  0.0667
19983SOL    HW260128   4.330   7.009   2.164  0.0564  0.0972  0.0708
19984SOL     OW60129   7.523   8.062   1.897 -0.2917  0.1580  0.3121
19984SOL    HW160130   7.433   8.039   1.861 -1.0841 -0.3535  2.4172
19984SOL    HW260131   7.550   8.153   1.866  0.4644 -1.2943 -3.8266
19985SOL     OW60132   7.280   2.725   6.374  0.4766 -0.0932 -0.0802
19985SOL    HW160133   7.376   2.729   6.346  0.4856 -1.9727 -0.4124
19985SOL    HW260134   7.264   2.644   6.430 -0.8443  0.3900  0.2908
19986SOL     OW60135   2.161   7.409   4.371  0.3489  0.1052  0.3283
19986SOL    HW160136   2.092   7.386   4.440 -0.0392  1.6369  0.4836
19986SOL    HW260137   2.178   7.508   4.372  2.9834 -0.2862  0.6845
19987SOL     OW60138   0.556   3.764   4.297 -0.1903  0.1016  0.4311
19987SOL    HW160139   0.641   3.729   4.336 -0.2648 -1.2794 -0.5405
19987SOL    HW260140   0.480   3.745   4.359 -0.1489 -1.0645  0.1525
19988SOL     OW60141   3.488   6.773   0.304 -0.2286 -0.0231  0.3970
19988SOL    HW160142   3.498   6.674   0.301  0.6583  0.0559  0.4864
19988SOL    HW260143   3.557   6.811   0.366 -0.3181  0.6793  0.0706
19989SOL     OW60144   7.719   4.965   0.052 -0.0725 -0.1090  0.0418
19989SOL    HW160145   7.712   5.003   0.144  1.0634  0.5625 -0.1302
19989SOL    HW260146   7.738   4.867   0.058 -0.4318 -0.1485  0.5174
19990SOL     OW60147   5.830   2.543   7.738 -0.5827  0.2388  0.2974
19990SOL    HW160148   5.736   2.508   7.743 -0.0899 -0.9721  1.5979
19990SOL    HW260149   5.873   2.512   7.653 -0.9302 -0.3211  0.3209
19991SOL     OW60150   4.515   6.592   2.615 -0.2199 -0.7652 -0.6679
19991SOL    HW160151   4.594   6.558   2.665 -0.0226 -0.5090 -0.8023
19991SOL    HW260152   4.498   6.535   2.535 -0.9529 -1.5896  0.0563
19992SOL     OW60153   0.275   0.269   1.762  0.3514 -0.1223 -0.0287
19992SOL    HW160154   0.215   0.307   1.691 -1.3611  0.2091  1.5121
19992SOL    HW260155   0.253   0.312   1.849  0.2612 -2.6927  1.2911
19993SOL     OW60156   5.707   2.986   6.043 -0.6652  0.3845 -0.0481
19993SOL    HW160157   5.750   3.036   6.118  1.7542 -0.8162 -0.5074
19993SOL    HW260158   5.685   3.050   5.969  1.3873  0.9961 -0.2030
19994SOL     OW60159   3.166   6.632   2.882 -0.4869  0.2344  0.1074
19994SOL    HW160160   3.083   6.619   2.828 -0.1955  2.5559 -1.0633
19994SOL    HW260161   3.142   6.668   2.972 -0.8499 -1.3413  0.6576
19995SOL     OW60162   7.305   5.601   2.753 -0.6902 -0.7559  0.5837
19995SOL    HW160163   7.361   5.625   2.832  0.8545 -0.1046 -0.6748
19995SOL    HW260164   7.222   5.658   2.753 -0.2919 -0.1575  1.2695
19996SOL     OW60165   1.997   2.853   3.729 -0.0364 -0.2533  0.8287
19996SOL    HW160166   2.022   2.783   3.797  0.3523 -0.0362  0.9105
19996SOL    HW260167   1.982   2.810   3.640  0.9685 -0.3477  0.6959
19997SOL     OW60168   4.071   5.345   5.988 -0.2014 -0.3373  0.0608
19997SOL    HW160169   4.081   5.345   6.088 -0.6694 -0.7289  0.1120
19997SOL    HW260170   4.132   5.414   5.949  1.1923 -1.2823  0.4928
19998SOL     OW60171   0.551   2.555   1.006 -0.1700 -0.1148  0.0923
19998SOL    HW160172   0.542   2.478   0.943 -3.2593 -1.6426  2.1643
19998SOL    HW260173   0.517   2.638   0.961  1.5406 -0.2217 -1.5531
19999SOL     OW60174   8.026   4.066   7.815  0.0092 -0.2656  0.8295
19999SOL    HW160175   8.023   4.162   7.787  0.6008 -0.4475  0.1104
19999SOL    HW260176   7.940   4.041   7.859 -0.1035  0.6225  1.1344
20000SOL     OW60177   4.898   4.657   1.163 -0.1067  0.4296 -0.0919
20000SOL    HW160178   4.897   4.679   1.065  0.9307 -1.5286 -0.5805
20000SOL    HW260179   4.862   4.736   1.214  0.6118  2.0428 -1.9198
20001SOL     OW60180   7.169   7.968   3.551  0.5194 -0.3512 -0.0731
20001SOL    HW160181   7.111   8.019   3.488 -0.3448 -1.3928 -0.1294
20001SOL    HW260182   7.181   7.875   3.518 -0.5034 -1.1227  1.6140
20002SOL     OW60183   4.134   5.352   6.995  0.3821  0.1885 -0.5620
20002SOL    HW160184   4.134   5.334   6.897 -1.9091 -0.9792 -0.4159
20002SOL    HW260185   4.165   5.446   7.012  0.8436  0.3999 -2.3864
20003SOL     OW60186   8.047   0.248   7.367  0.0878  0.2968 -0.0801
20003SOL    HW160187   8.001   0.270   7.453 -0.3800  0.6125 -0.4068
20003SOL    HW260188   8.055   0.331   7.311  2.6394  0.6724  0.6899
20004SOL     OW60189   2.592   0.162   0.537 -0.5626  0.4388  0.2222
20004SOL    HW160190   2.564   0.203   0.623  0.0231  1.0075  0.1501
20004SOL    HW260191   2.523   0.096   0.507 -0.8083  0.3027  1.0760
20005SOL     OW60192   8.201   5.420   2.799  0.1480  0.0476  0.0644
20005SOL    HW160193   8.174   5.325   2.814  1.4701 -0.0505  2.3503
20005SOL    HW260194   8.146   5.480   2.857  0.7305  0.4375  0.2250
20006SOL     OW60195   6.071   8.823   0.363 -0.2731 -0.2087 -1.1848
20006SOL    HW160196   5.994   8.874   0.400  0.8307  1.2112 -0.7601
20006SOL    HW260197   6.152   8.835   0.421  0.0284 -2.5945 -0.9763
20007SOL     OW60198   4.443   1.302   2.342  0.6130 -0.5122 -0.0717
20007SOL    HW160199   4.506   1.265   2.274  0.9654  0.5156 -0.3214
20007SOL    HW260200   4.349   1.282   2.314  0.7955 -1.3333 -0.1225
20008SOL     OW60201   2.515   3.616   3.776  0.4820  0.6466  0.4239
20008SOL    HW160202   2.564   3.565   3.847  1.3903 -0.3858 -0.8787
20008SOL    HW260203   2.579   3.677   3.729 -0.6680  3.3934  2.2167
20009SOL     OW60204   5.416   7.238   5.429 -0.1615 -0.1439  0.3337
20009SOL    HW160205   5.426   7.329   5.470  0.6234 -0.2948  0.4785
20009SOL    HW260206   5.362   7.246   5.345 -0.0204  0.4701  0.2945
20010SOL     OW60207   8.166   8.291   6.756 -0.4089 -0.0210 -0.1273
20010SOL    HW160208   8.218   8.282   6.841 -0.4437 -0.6815 -0.1686
20010SOL    HW260209   8.227   8.273   6.678 -0.4348  0.3446 -0.2347
20011SOL     OW60210   7.792   5.358   3.005  0.5405 -0.5431 -0.2917
20011SOL    HW160211   7.836   5.284   3.057 -1.0645 -1.5561 -0.2898
20011SOL    HW260212   7.758   5.428   3.068  1.4807 -0.1207 -0.2423
20012SOL     OW60213   0.330   7.723   6.007  0.2970 -0.1958 -0.0148
20012SOL    HW160214   0.403   7.790   5.989 -0.9396  0.8052 -1.5959
20012SOL    HW260215   0.249   7.747   5.953 -0.8559 -1.8889  0.8792
20013SOL     OW60216   7.026   8.232   1.491  0.0527  0.3659 -0.0404
20013SOL    HW160217   7.008   8.270   1.582  0.5874 -0.7925  0.5867
20013SOL    HW260218   6.947   8.177   1.462 -0.0095  0.5152 -0.1526
20014SOL     OW60219   0.905   3.741   1.917  0.0188  0.7514  0.8141
20014SOL    HW160220   0.905   3.648   1.879 -0.2379  1.7084 -1.6610
20014SOL    HW260221   0.846   3.743   1.998 -0.5084 -1.0828  0.5386
20015SOL     OW60222   0.379   4.839   2.862 -0.2987  0.4608  0.5189
20015SOL    HW160223   0.478   4.839   2.843 -0.5765  0.9596 -1.1282
20015SOL    HW260224   0.352   4.748   2.894  0.2796 -0.5568 -1.6550
20016SOL     OW60225   5.539   4.679   5.449  0.0944  0.2614 -0.6553
20016SOL    HW160226   5.603   4.747   5.484  0.3848 -0.1631 -0.3480
20016SOL    HW260227   5.590   4.606   5.403 -0.2454  0.4986 -1.4236
20017SOL     OW60228   2.213   1.545   4.654 -0.0823  0.4096  0.0236
20017SOL    HW160229   2.304   1.582   4.637 -0.2534  0.7484 -0.1704
20017SOL    HW260230   2.147   1.620   4.655 -0.0432  0.5118  2.6553
20018SOL     OW60231   8.255   3.361   2.314  0.6282 -0.8917  0.7450
20018SOL    HW160232   8.273   3.332   2.220  0.7537 -0.8364  0.7516
20018SOL    HW260233   8.334   3.412   2.349  1.6352 -2.9750  1.6988
20019SOL     OW60234   3.484   0.064   1.748 -0.3179 -0.0038 -0.5229
20019SOL    HW160235   3.535  -0.022   1.747 -1.6305 -0.8235 -2.6784
20019SOL    HW260236   3.543   0.137   1.714  1.0545  0.2048  2.0210
20020SOL     OW60237   2.824   2.378   6.531 -0.3796  0.1850 -0.5706
20020SOL    HW160238   2.868   2.465   6.510  1.0032 -0.3887 -0.1496
20020SOL    HW260239   2.736   2.395   6.575 -0.0355  1.3607 -0.3114
20021SOL     OW60240   6.673   0.815   1.137 -0.1503 -0.4048  0.0224
20021SOL    HW160241   6.649   0.788   1.044 -0.1976 -0.0515 -0.0698
20021SOL    HW260242   6.772   0.805   1.150  0.1265  1.1988 -0.6341
20022SOL     OW60243   2.840   5.486   1.685 -0.6849  0.6029  0.1545
20022SOL    HW160244   2.853   5.585   1.683  0.9441  0.4051 -1.7348
20022SOL    HW260245   2.783   5.458   1.608  0.8238 -0.1204 -0.7475
20023SOL     OW60246   7.796   4.290   6.847  0.0964  0.0879  0.0013
20023SOL    HW160247   7.872   4.354   6.842  0.1842 -0.0617 -0.6697
20023SOL    HW260248   7.711   4.340   6.867  0.2079  0.3849 -0.2506
20024SOL     OW60249   1.547   5.052   0.709  0.2707 -0.1008  0.6353
20024SOL    HW160250   1.548   4.952   0.716  0.7975 -0.1322  0.1718
20024SOL    HW260251   1.603   5.091   0.782 -0.3885 -0.1146  1.1594
20025SOL     OW60252   6.772   4.491   1.805 -0.2539  0.1532  0.2179
20025SOL    HW160253   6.768   4.447   1.895  2.0144  0.9643  0.7763
20025SOL    HW260254   6.695   4.554   1.795 -2.3507 -2.2405  0.2544
20026SOL     OW60255   2.659   4.457   0.629  0.5002 -0.3045  0.6394
20026SOL    HW160256   2.669   4.393   0.705  0.5869 -0.6096  0.3731
20026SOL    HW260257   2.629   4.546   0.664  0.9027 -0.3370  1.0691
20027SOL     OW60258   2.247   2.462   7.634  0.5293  0.4981 -0.4802
20027SOL    HW160259   2.311   2.538   7.623  0.0472  1.1274  0.8941
20027SOL    HW260260   2.242   2.435   7.730 -1.2693  0.4906 -0.5355
20028SOL     OW60261   7.707   6.810   1.314  0.2364 -0.0116 -0.4199
20028SOL    HW160262   7.632   6.746   1.295  0.8835 -1.0916  0.5771
20028SOL    HW260263   7.730   6.806   1.411  0.2141  1.8568 -0.3047
20029SOL     OW60264   0.464   0.044   7.266  0.0776 -0.1502  0.1502
20029SOL    HW160265   0.561   0.029   7.284 -0.1725 -0.6717  1.1186
20029SOL    HW260266   0.428   0.110   7.333  0.0136  0.9379 -0.9230
20030SOL     OW60267   7.179   7.047   1.177 -0.1254  0.2818  0.4324
20030SOL    HW160268   7.105   7.015   1.118  0.4100 -2.7248  1.2008
20030SOL    HW260269   7.151   7.039   1.272  1.1237 -0.8438  0.7303
20031SOL     OW60270   8.077   1.784   3.265 -0.0280 -0.3521  0.2308
20031SOL    HW160271   8.031   1.741   3.188  0.5645  0.1828 -0.4292
20031SOL    HW260272   8.120   1.869   3.236  0.6632 -0.4159  1.0180
20032SOL     OW60273   2.488   6.489   0.380 -0.6962  0.4553  1.0249
20032SOL    HW160274   2.425   6.565   0.369 -1.7314 -0.1015  2.6126
20032SOL    HW260275   2.440   6.403   0.363  0.2180  0.0849  0.1555
20033SOL     OW60276   6.634   1.406   8.383  0.1611 -0.0295 -0.2068
20033SOL    HW160277   6.584   1.457   8.312  0.1064 -0.3320 -0.3882
20033SOL    HW260278   6.716   1.456   8.409  0.4476 -0.1580 -0.8501
20034SOL     OW60279   1.725   8.079   0.105 -0.4558  0.1297 -0.1418
20034SOL    HW160280   1.797   8.018   0.139 -0.6675 -0.9955 -1.6003
20034SOL    HW260281   1.649   8.024   0.069 -0.3110  1.1893 -2.2307
20035SOL     OW60282   2.129   0.148   6.063 -0.3600 -0.3441  0.0415
20035SOL    HW160283   2.066   0.108   6.130 -0.8634  0.8305  0.3029
20035SOL    HW260284   2.221   0.149   6.100 -0.7949  1.2643  1.2195
20036SOL     OW60285   7.610   1.485   2.486 -0.2620 -0.1285 -0.0464
20036SOL    HW160286   7.593   1.393   2.522 -1.3075 -0.1001 -0.4295
20036SOL    HW260287   7.692   1.484   2.429 -0.7465 -1.0178 -0.7498
20037SOL     OW60288   0.964   6.326   0.907 -0.6420 -0.0672 -0.1425
20037SOL    HW160289   1.042   6.363   0.956  1.2679 -0.2796 -2.7614
20037SOL    HW260290   0.942   6.235   0.943  0.3378 -0.0152  0.6322
20038SOL     OW60291   8.346   6.900   1.195  0.3249 -0.2452 -0.5957
20038SOL    HW160292   8.302   6.965   1.134  1.1305 -0.0395 -0.9683
20038SOL    HW260293   8.335   6.930   1.290  0.3248  0.2052 -0.7400
20039SOL     OW60294   1.675   8.236   3.545  0.1626  0.2003 -0.3176
20039SOL    HW160295   1.716   8.287   3.621  0.2339 -1.2750  0.6699
20039SOL    HW260296   1.593   8.188   3.577 -1.7880  2.2066 -1.9942
20040SOL     OW60297   8.111   3.270   5.663 -0.9584  0.3034  0.3566
20040SOL    HW160298   8.159   3.357   5.676  0.1057 -0.3946  1.2321
20040SOL    HW260299   8.125   3.211   5.743 -1.5576 -0.7256 -0.2694
20041SOL     OW60300   3.886   5.362   2.199 -0.7186 -0.5977  0.4932
20041SOL    HW160301   3.947   5.341   2.276 -0.0386 -0.0129  0.1242
20041SOL    HW260302   3.846   5.278   2.165  1.7673 -1.3515 -0.8101
20042SOL     OW60303   1.003   0.191   6.354 -0.4089  0.2727  0.3379
20042SOL    HW160304   0.969   0.261   6.291  0.3773  0.9490  0.6463
20042SOL    HW260305   1.012   0.104   6.306  0.0981  0.7546 -0.4641
20043SOL     OW60306   8.283   2.302   0.366  0.1765 -0.5282  0.2393
20043SOL    HW160307   8.302   2.309   0.268 -0.6022  1.9204  0.1774
20043SOL    HW260308   8.211   2.235   0.381  0.6421 -1.2908 -0.7958
20044SOL     OW60309   1.629   0.289   3.825 -0.0100  0.4024  0.1732
20044SOL    HW160310   1.569   0.217   3.791  0.5328  0.2173 -0.4197
20044SOL    HW260311   1.674   0.334   3.747 -1.8532  2.7502  0.3275
20045SOL     OW60312   7.936   5.838   1.710 -0.1251  0.5635  0.1923
20045SOL    HW160313   7.855   5.858   1.654  0.0848 -0.9350 -0.7091
20045SOL    HW260314   7.916   5.763   1.772  0.9091 -0.6889 -0.9300
20046SOL     OW60315   3.660   7.184   4.990 -0.0309 -0.3879  0.2799
20046SOL    HW160316   3.646   7.238   4.908 -0.4498 -1.9772 -0.7439
20046SOL    HW260317   3.721   7.233   5.053 -2.0562  2.2076  0.4003
20047SOL     OW60318   8.780   6.974   6.804  0.2395 -0.6054 -0.8301
20047SOL    HW160319   8.849   6.980   6.732 -0.4581  0.1453 -1.4662
20047SOL    HW260320   8.717   6.900   6.784  0.9542 -1.4161 -0.1475
20048SOL     OW60321   5.599   7.567   0.309  0.1271 -0.3556 -0.2729
20048SOL    HW160322   5.564   7.497   0.247 -0.4917 -0.3092  0.0172
20048SOL    HW260323   5.699   7.568   0.305  0.1238 -0.9675 -0.5895
20049SOL     OW60324   5.312   6.922   5.135 -0.0089  0.1081 -0.2084
20049SOL    HW160325   5.283   6.865   5.058 -1.2631 -0.9185  0.9671
20049SOL    HW260326   5.265   6.892   5.218  0.2539  2.0748  0.7037
20050SOL     OW60327   8.816   5.019   2.442 -0.2217 -0.2043 -0.7132
20050SOL    HW160328   8.748   4.978   2.502  0.3737  1.0852  0.9033
20050SOL    HW260329   8.907   4.985   2.466  0.4048  2.6041  1.2825
20051SOL     OW60330   7.846   5.806   3.362  0.0815 -0.4364  0.4838
20051SOL    HW160331   7.844   5.905   3.345  0.3525 -0.4995  0.0775
20051SOL    HW260332   7.763   5.779   3.410  0.0013 -0.0125  0.5876
20052SOL     OW60333   4.703   6.138   3.202  0.0560  0.3594  0.9748
20052SOL    HW160334   4.621   6.096   3.242 -0.5199  1.6093  1.1484
20052SOL    HW260335   4.719   6.227   3.244 -0.3855  1.5989 -1.3242
20053SOL     OW60336   7.932   3.939   0.141 -0.1363  0.4913  0.1739
20053SOL    HW160337   8.016   3.912   0.187 -0.8412  0.2295  1.3253
20053SOL    HW260338   7.854   3.926   0.202 -1.1785 -0.4597 -1.2896
20054SOL     OW60339   7.716   6.173   6.580 -0.3716 -0.1709 -0.0802
20054SOL    HW160340   7.793   6.191   6.518 -1.0045  1.4439 -0.4598
20054SOL    HW260341   7.720   6.238   6.657 -1.2225 -0.2330  0.0223
20055SOL     OW60342   0.589   5.741   8.185 -0.3775  0.0300 -0.6187
20055SOL    HW160343   0.563   5.812   8.119 -0.2523  0.2690 -0.4128
20055SOL    HW260344   0.686   5.718   8.171 -0.6955 -0.8691 -1.3958
20056SOL     OW60345   7.515   1.476   0.679 -0.1390  0.4620  0.2081
20056SOL    HW160346   7.583   1.539   0.715  1.6951 -0.6961 -1.0869
20056SOL    HW260347   7.501   1.401   0.745  0.5055  0.2463  0.1063
20057SOL     OW60348   6.072   3.354   7.209  0.0299 -0.4054 -0.0084
20057SOL    HW160349   6.096   3.355   7.112  0.0078 -0.8780 -0.0175
20057SOL    HW260350   6.010   3.278   7.228  0.3096 -0.5240  0.4413
20058SOL     OW60351   7.603   3.604   3.578 -0.1568 -0.1478  0.1697
20058SOL    HW160352   7.687   3.655   3.556 -0.4509  0.2403 -0.0610
20058SOL    HW260353   7.570   3.557   3.497 -0.8342  0.6880 -0.0513
20059SOL     OW60354   2.027   7.162   6.195 -0.0111 -0.9443  0.1558
20059SOL    HW160355   2.035   7.063   6.210  0.5735 -0.6353  2.1362
20059SOL    HW260356   2.116   7.205   6.206 -0.5266 -0.0150  0.7826
20060SOL     OW60357   0.039   6.444   7.825  0.0398 -0.0197  0.1750
20060SOL    HW160358   0.012   6.530   7.869  0.3048  0.1316  0.0430
20060SOL    HW260359   0.063   6.462   7.729 -0.8370 -0.3900 -0.1342
20061SOL     OW60360   5.745   3.562   5.325  0.1435 -0.2316  0.1048
20061SOL    HW160361   5.707   3.620   5.252  0.6629 -0.6619 -0.5127
20061SOL    HW260362   5.820   3.610   5.369  1.1512 -0.7552 -0.9869
20062SOL     OW60363   6.945   4.505   4.878  0.2538  0.0402  0.6458
20062SOL    HW160364   6.936   4.445   4.957 -0.6716  0.2129  0.6794
20062SOL    HW260365   6.856   4.542   4.853  0.5267 -0.0098 -0.4801
20063SOL     OW60366   1.229   8.033   8.058 -0.0891  0.2216  0.6869
20063SOL    HW160367   1.256   8.037   8.154 -1.7150 -1.8428  1.3153
20063SOL    HW260368   1.253   7.943   8.021 -1.8193  0.0030 -0.0140
20064SOL     OW60369   3.754   5.320   2.648 -0.7051  0.2017 -0.1796
20064SOL    HW160370   3.723   5.372   2.568 -1.5929  1.4962  0.9611
20064SOL    HW260371   3.802   5.382   2.711 -1.1462 -0.5226  0.8872
20065SOL     OW60372   5.304   3.582   6.585 -0.1550  0.1003 -0.4747
20065SOL    HW160373   5.348   3.672   6.597 -1.9725  1.0305 -0.4804
20065SOL    HW260374   5.311   3.531   6.671 -2.1182  1.6913  0.7252
20066SOL     OW60375   2.670   6.402   3.192  0.5106 -0.3429 -0.0782
20066SOL    HW160376   2.596   6.396   3.125  0.1575 -0.0865  0.2830
20066SOL    HW260377   2.650   6.341   3.269  1.6296 -1.7605 -0.8667
20067SOL     OW60378   8.478   0.846   4.945 -0.1609 -0.7286 -0.0697
20067SOL    HW160379   8.577   0.857   4.938 -0.0423 -1.4520  0.3592
20067SOL    HW260380   8.447   0.778   4.878 -0.4587 -0.0716 -0.6139
20068SOL     OW60381   7.933   1.265   6.403 -0.0737  0.1963  0.1102
20068SOL    HW160382   7.999   1.313   6.461  0.4571  1.5570 -1.5374
20068SOL    HW260383   7.841   1.297   6.425  0.0198 -0.0758  0.9140
20069SOL     OW60384   7.065   0.363   4.740  0.4946 -0.5449 -0.1258
20069SOL    HW160385   7.096   0.309   4.662 -1.7059  0.0464 -1.5254
20069SOL    HW260386   7.020   0.304   4.807 -2.1628 -0.5399 -1.7815
20070SOL     OW60387   3.719   2.957   4.931 -0.1120  0.2380  0.2087
20070SOL    HW160388   3.647   2.889   4.921 -0.8911  1.0252  0.3682
20070SOL    HW260389   3.694   3.022   5.003 -0.2235  1.7189 -1.1097
20071SOL     OW60390   0.036   8.707   6.296 -0.3576  0.5646 -0.1352
20071SOL    HW160391   0.045   8.804   6.321 -1.3037  1.0371 -1.5290
20071SOL    HW260392   0.028   8.698   6.197 -3.3407 -0.6408  0.1043
20072SOL     OW60393   3.584   0.483   7.251 -0.2252  0.1626  0.0720
20072SOL    HW160394   3.576   0.387   7.226 -1.0324  0.7611 -2.2337
20072SOL    HW260395   3.498   0.515   7.292 -0.6608  0.3215 -0.9211
20073SOL     OW60396   2.168   0.764   7.368  0.2491  0.0823  0.3827
20073SOL    HW160397   2.216   0.788   7.284 -0.7973  0.0407 -0.2347
20073SOL    HW260398   2.075   0.801   7.366 -0.1512 -0.8406  1.0302
20074SOL     OW60399   3.719   5.997   3.919  0.1790  0.3669  0.2402
20074SOL    HW160400   3.659   6.002   3.999  0.0471 -0.8934  0.2362
20074SOL    HW260401   3.748   5.903   3.905 -0.3765  0.4284 -1.6228
20075SOL     OW60402   4.214   2.268   4.139 -0.6509  0.4275 -0.0984
20075SOL    HW160403   4.282   2.322   4.090 -0.1926 -0.2264 -0.1948
20075SOL    HW260404   4.122   2.289   4.104 -0.3653  0.2575 -0.9708
20076SOL     OW60405   4.896   7.453   7.693  0.3779 -0.3280 -0.2529
20076SOL    HW160406   4.798   7.455   7.713  0.3122  2.5234 -0.4624
20076SOL    HW260407   4.947   7.477   7.775  0.7676  0.2375 -0.6569
20077SOL     OW60408   0.641   0.933   1.748 -0.0507 -0.0521 -0.5427
20077SOL    HW160409   0.573   0.984   1.802 -0.9445  0.1094 -1.7871
20077SOL    HW260410   0.671   0.990   1.671  0.4241 -0.6690 -0.8167
20078SOL     OW60411   7.143   0.915   8.348  0.3797  0.1052  0.5506
20078SOL    HW160412   7.183   0.846   8.287  2.2063  0.3012  1.4420
20078SOL    HW260413   7.083   0.975   8.296 -0.8817 -1.8453 -0.3441
20079SOL     OW60414   4.979   8.302   5.365  0.1798 -0.0181 -0.0489
20079SOL    HW160415   5.059   8.330   5.418  0.0071  0.7431 -0.1727
20079SOL    HW260416   4.930   8.384   5.334 -0.1108 -0.4669 -0.7879
20080SOL     OW60417   7.731   0.311   2.707  0.4839 -0.4282 -0.5586
20080SOL    HW160418   7.773   0.350   2.625 -0.1484  1.1104 -0.1892
20080SOL    HW260419   7.707   0.385   2.770 -0.7146 -1.4499  0.2196
20081SOL     OW60420   3.809   2.017   5.787 -0.4419  0.6166 -0.0238
20081SOL    HW160421   3.742   2.081   5.825 -1.2103 -0.2304  0.1029
20081SOL    HW260422   3.878   2.067   5.736  0.5246  1.8014  2.2953
20082SOL     OW60423   7.287   4.844   0.680  0.0893  0.8225 -0.3911
20082SOL    HW160424   7.352   4.919   0.664 -0.9712  1.4084 -2.2834
20082SOL    HW260425   7.302   4.772   0.613  0.1483 -0.0176  0.5077
20083SOL     OW60426   7.078   2.753   3.265  0.1123 -0.2282  0.3930
20083SOL    HW160427   7.002   2.812   3.237 -1.1046 -2.4749 -1.4252
20083SOL    HW260428   7.065   2.725   3.360 -1.2027 -0.3633  0.1941
20084SOL     OW60429   5.634   5.311   5.205 -0.4277 -0.2171 -0.6729
20084SOL    HW160430   5.694   5.384   5.239 -2.1903  1.2979 -0.6160
20084SOL    HW260431   5.682   5.258   5.135  1.1899  0.4950 -0.1416
20085SOL     OW60432   6.725   8.180   6.015  0.0649 -0.1984 -0.3686
20085SOL    HW160433   6.721   8.276   5.986 -1.7809  0.1678  0.8868
20085SOL    HW260434   6.714   8.121   5.935  0.1906  0.6505 -1.0306
20086SOL     OW60435   0.226   1.530   5.880 -0.0357 -0.2848  0.6872
20086SOL    HW160436   0.127   1.520   5.891 -0.2691  1.4533  0.4120
20086SOL    HW260437   0.271   1.514   5.968 -0.3180 -3.0391  0.4328
20087SOL     OW60438   6.108   0.785   1.231  0.1627 -0.2121 -0.2087
20087SOL    HW160439   6.107   0.815   1.327  1.1624 -0.9627  0.0560
20087SOL    HW260440   6.158   0.699   1.223  0.1972 -0.1025 -1.4278
20088SOL     OW60441   2.203   7.804   0.957  0.0395 -0.0782  0.3379
20088SOL    HW160442   2.297   7.817   0.988  0.2246 -1.3018  0.3186
20088SOL    HW260443   2.166   7.892   0.925  0.7612  0.6449  1.4327
20089SOL     OW60444   5.123   1.133   4.015  0.0270 -0.1109 -0.0798
20089SOL    HW160445   5.155   1.039   4.024 -0.1018 -0.1278  0.2033
20089SOL    HW260446   5.043   1.135   3.955 -0.9297 -0.4014  1.1235
20090SOL     OW60447   1.061   0.459   3.771 -0.1400 -0.7440 -0.4002
20090SOL    HW160448   1.100   0.398   3.702  0.0597 -0.1732 -0.8038
20090SOL    HW260449   1.120   0.539   3.781 -0.4393 -0.5800  0.0618
20091SOL     OW60450   7.613   7.702   5.663 -0.6122 -0.0746  0.8445
20091SOL    HW160451   7.597   7.801   5.665 -2.7191 -0.3238 -0.2829
20091SOL    HW260452   7.564   7.662   5.585 -2.4976 -2.4223  3.0526
20092SOL     OW60453   7.161   7.110   6.292 -0.3307  0.6120 -0.3720
20092SOL    HW160454   7.240   7.062   6.254 -0.5601 -0.3411  0.3213
20092SOL    HW260455   7.181   7.207   6.299  0.9208  0.3311  0.1698
20093SOL     OW60456   8.206   1.855   8.682 -0.6560 -0.3912  0.4462
20093SOL    HW160457   8.244   1.901   8.602  0.9173 -2.0390  0.1753
20093SOL    HW260458   8.280   1.835   8.747 -1.8950  0.9447  2.3766
20094SOL     OW60459   3.382   2.482   6.920 -0.1616  0.5948  0.1757
20094SOL    HW160460   3.300   2.461   6.974 -1.1979  1.6719 -0.9099
20094SOL    HW260461   3.436   2.551   6.969  1.4749 -1.8819  2.0932
20095SOL     OW60462   0.967   0.852   7.994  0.6562  0.4977  0.2556
20095SOL    HW160463   1.031   0.919   7.958  1.1265 -0.6056 -1.0184
20095SOL    HW260464   1.013   0.795   8.062  0.7232  0.4043  0.1319
20096SOL     OW60465   5.196   6.308   2.197  0.0517 -0.1082  0.4272
20096SOL    HW160466   5.242   6.219   2.198 -0.1182 -0.2699 -1.9340
20096SOL    HW260467   5.217   6.355   2.112  3.0580  3.7525  2.9143
20097SOL     OW60468   4.686   1.353   6.340 -0.5880  0.1784 -0.2866
20097SOL    HW160469   4.643   1.439   6.310 -1.0780  0.0497  0.0371
20097SOL    HW260470   4.754   1.373   6.410  0.0565  0.4089 -0.9636
20098SOL     OW60471   1.603   6.050   3.974  0.4650 -0.0893 -0.2590
20098SOL    HW160472   1.635   6.134   4.019 -0.3400 -0.2825  0.7022
20098SOL    HW260473   1.681   6.000   3.938  1.0366  0.6070 -0.0144
20099SOL     OW60474   5.505   7.228   1.601 -0.0626 -0.0170  0.3694
20099SOL    HW160475   5.569   7.218   1.677 -2.4192  1.4249  2.7190
20099SOL    HW260476   5.495   7.141   1.553  2.6708 -0.5589  0.6459
20100SOL     OW60477   8.704   2.162   5.901 -0.4497 -0.1358 -0.5275
20100SOL    HW160478   8.607   2.138   5.911 -0.6973  0.4236 -1.4420
20100SOL    HW260479   8.760   2.079   5.907 -0.7674 -0.2630  2.0889
20101SOL     OW60480   1.696   3.326   0.650  0.6735 -0.6157  0.1581
20101SOL    HW160481   1.705   3.256   0.579 -0.1133  0.9456 -1.5712
20101SOL    HW260482   1.611   3.312   0.700  0.3043 -0.6529 -0.4704
20102SOL     OW60483   6.479   5.896   3.810 -0.2189  0.6789  0.5266
20102SOL    HW160484   6.492   5.939   3.720 -0.2035  0.2576  0.3238
20102SOL    HW260485   6.392   5.847   3.811  0.1518  0.0045  0.4617
20103SOL     OW60486   3.254   5.029   2.049 -0.8007 -0.2669 -0.2080
20103SOL    HW160487   3.256   5.128   2.065  1.8851 -0.3065  0.1747
20103SOL    HW260488   3.292   4.982   2.128 -1.2068 -1.5582 -0.7592
20104SOL     OW60489   8.077   7.893   1.922  0.1030  0.2126  0.3967
20104SOL    HW160490   8.056   7.891   1.824  0.3618  2.2533  0.2554
20104SOL    HW260491   7.992   7.885   1.974 -0.1208 -0.0796 -0.0061
20105SOL     OW60492   0.854   0.408   3.951 -0.1940  0.2223 -0.3845
20105SOL    HW160493   0.910   0.459   4.016  0.1250 -2.2056  1.3965
20105SOL    HW260494   0.907   0.390   3.868  1.4649 -1.2658  0.9098
20106SOL     OW60495   3.040   1.161   7.233 -0.5473 -0.3479 -0.0006
20106SOL    HW160496   3.066   1.066   7.220 -1.8894 -0.8182  0.4804
20106SOL    HW260497   2.999   1.172   7.324  0.9122  1.0093  0.5328
20107SOL     OW60498   4.848   4.198   3.920  0.0332  0.0488  0.2368
20107SOL    HW160499   4.818   4.112   3.879 -1.5483  0.6928 -0.0285
20107SOL    HW260500   4.873   4.263   3.848  1.7855 -0.3389  0.4445
20108SOL     OW60501   7.659   5.766   1.198  0.1591 -0.2324  0.5545
20108SOL    HW160502   7.686   5.847   1.145 -1.7371  0.7686  1.0056
20108SOL    HW260503   7.686   5.778   1.293  0.2696 -0.3189  0.5334
20109SOL     OW60504   3.534   4.939   5.385 -0.4150 -0.1813  0.5035
20109SOL    HW160505   3.524   5.020   5.327 -0.1929  0.0145  0.7382
20109SOL    HW260506   3.608   4.954   5.451 -0.3781 -0.5730  0.5514
20110SOL     OW60507   0.122   4.542   6.494  0.3839 -0.3766  0.3965
20110SOL    HW160508   0.120   4.612   6.423  1.6424  0.5267  1.1987
20110SOL    HW260509   0.216   4.509   6.505 -0.2031 -2.2962 -0.0277
20111SOL     OW60510   4.672   0.022   2.712  0.7925  0.7630 -0.4486
20111SOL    HW160511   4.694   0.114   2.676  2.0456  1.2405  1.3926
20111SOL    HW260512   4.703  -0.047   2.646 -0.4448  1.6232 -2.0106
20112SOL     OW60513   4.482   5.833   0.947 -0.3468  0.2296 -0.0720
20112SOL    HW160514   4.390   5.796   0.936 -0.6794  1.0839 -0.2606
20112SOL    HW260515   4.520   5.852   0.856  0.4269 -1.0647 -0.0464
20113SOL     OW60516   0.584   4.931   7.326  0.0941  0.1150 -0.6669
20113SOL    HW160517   0.680   4.939   7.354 -0.2875 -1.1324  1.2125
20113SOL    HW260518   0.568   4.842   7.284 -0.3850 -0.0033 -0.2522
20114SOL     OW60519   2.053   1.515   2.287 -0.5131 -0.2090  0.1007
20114SOL    HW160520   2.038   1.447   2.216 -0.1235 -0.1378 -0.0500
20114SOL    HW260521   2.143   1.502   2.328 -0.4455  0.1985  0.0860
20115SOL     OW60522   4.323   2.675   6.273  0.4617  0.8818  0.2972
20115SOL    HW160523   4.380   2.737   6.327  0.0873  1.7503 -0.2729
20115SOL    HW260524   4.311   2.589   6.322  2.9983  0.2987  0.0580
20116SOL     OW60525   6.772   6.122   3.343  0.4334  0.3222  0.2694
20116SOL    HW160526   6.784   6.102   3.440 -0.8441  1.2303  0.6428
20116SOL    HW260527   6.766   6.221   3.330  0.5322  0.2077 -0.7267
20117SOL     OW60528   5.515   0.442   6.881  0.1004 -0.1817  0.4840
20117SOL    HW160529   5.452   0.496   6.937 -1.8803 -0.6104 -1.2054
20117SOL    HW260530   5.516   0.477   6.788  2.4254 -0.1975  0.4583
20118SOL     OW60531   1.055   3.084   0.931  0.8950 -0.1023 -0.0707
20118SOL    HW160532   1.038   3.058   0.836 -0.6642  0.3486  0.0643
20118SOL    HW260533   1.053   3.003   0.989 -1.9939 -0.0430  0.0748
20119SOL     OW60534   4.944   1.838   3.820  0.5604  0.3685  0.3363
20119SOL    HW160535   5.013   1.770   3.796  1.7090  1.4507  0.5186
20119SOL    HW260536   4.878   1.846   3.746  0.1946 -1.1734  0.4470
20120SOL     OW60537   4.527   2.397   5.242 -0.3420  0.3055  0.1891
20120SOL    HW160538   4.514   2.380   5.145 -2.0902  2.9454 -0.1519
20120SOL    HW260539   4.438   2.394   5.289  0.2090  0.9932  1.3256
20121SOL     OW60540   1.723   6.675   0.661 -0.1844  0.0866  0.0324
20121SOL    HW160541   1.796   6.629   0.610 -0.2503  0.9061 -0.8143
20121SOL    HW260542   1.647   6.696   0.600 -1.1252 -0.6872  0.8856
20122SOL     OW60543   3.421   5.884   5.824  0.2419 -0.0838  0.2958
20122SOL    HW160544   3.459   5.838   5.904 -2.9622 -0.7346  1.5801
20122SOL    HW260545   3.349   5.827   5.784 -0.3143  1.5826 -1.1867
20123SOL     OW60546   6.504   5.387   3.489 -0.1488 -0.1835 -0.7175
20123SOL    HW160547   6.536   5.319   3.423  0.3350 -0.4473 -0.2268
20123SOL    HW260548   6.557   5.471   3.479 -0.5653  0.0286 -1.1458
20124SOL     OW60549   8.573   2.325   2.818  0.3549 -0.7709 -0.0816
20124SOL    HW160550   8.645   2.366   2.873 -0.9808  1.2146  0.3101
20124SOL    HW260551   8.523   2.257   2.873 -0.4750  0.6318  0.9675
20125SOL     OW60552   3.299   4.825   5.519 -0.0016  0.5201 -0.4156
20125SOL    HW160553   3.228   4.788   5.459 -1.2671  1.3800  0.4838
20125SOL    HW260554   3.370   4.869   5.464 -1.3133  1.6166 -1.3215
20126SOL     OW60555   6.087   1.119   4.647  0.7095 -0.4300  0.2764
20126SOL    HW160556   6.173   1.075   4.672 -0.4204 -2.8301  0.2050
20126SOL    HW260557   6.051   1.079   4.563  0.1980  1.5572 -0.5168
20127SOL     OW60558   5.436   2.581   0.627  0.1260 -0.2965  0.0744
20127SOL    HW160559   5.388   2.504   0.585 -1.0253  0.1219  0.6015
20127SOL    HW260560   5.371   2.654   0.648  0.8076 -0.1071  1.7085
20128SOL     OW60561   5.840   0.352   1.493  0.1076  0.4926  0.2789
20128SOL    HW160562   5.796   0.415   1.429  1.6610  0.2863 -1.0479
20128SOL    HW260563   5.788   0.350   1.579  0.1781  3.8008  0.5054
20129SOL     OW60564   0.731   3.299   2.184 -0.2245 -0.2836  0.2241
20129SOL    HW160565   0.683   3.380   2.151  0.7667 -0.2654 -1.2760
20129SOL    HW260566   0.830   3.312   2.174 -0.0392 -1.6040  0.1072
20130SOL     OW60567   6.832   7.640   3.735 -0.2925 -0.0936 -0.1692
20130SOL    HW160568   6.737   7.610   3.747 -0.1527 -0.7722 -0.7475
20130SOL    HW260569   6.858   7.630   3.639  0.1755  0.6651 -0.1299
20131SOL     OW60570   4.547   6.405   1.343  0.2972 -0.9912 -0.2624
20131SOL    HW160571   4.471   6.349   1.313 -0.7691  0.1440  0.2360
20131SOL    HW260572   4.516   6.469   1.413  1.4950  0.0934 -0.6703
20132SOL     OW60573   2.547   6.008   0.667 -0.3445  0.7526  0.5097
20132SOL    HW160574   2.569   5.914   0.643  0.0624  0.6328  1.3456
20132SOL    HW260575   2.465   6.037   0.617 -0.9830 -0.3228  0.9031
20133SOL     OW60576   2.227   7.282   5.656  0.6701 -0.4286  0.5552
20133SOL    HW160577   2.187   7.217   5.720  1.4601 -1.1834  0.2944
20133SOL    HW260578   2.155   7.343   5.622 -0.3591 -2.0046 -0.2305
20134SOL     OW60579   6.526   5.203   3.281 -0.1065 -0.2884  0.0167
20134SOL    HW160580   6.535   5.104   3.287  0.0610 -0.3667 -1.2576
20134SOL    HW260581   6.569   5.236   3.196 -2.0965  0.6095 -0.7078
20135SOL     OW60582   2.047   1.003   5.104 -0.3556  0.0861  0.8099
20135SOL    HW160583   2.056   1.082   5.044  0.3669 -0.4055  0.2524
20135SOL    HW260584   2.113   0.933   5.077 -1.1167 -0.7916  1.1605
20136SOL     OW60585   0.103   0.421   2.602  0.0514 -0.1061 -0.0740
20136SOL    HW160586   0.108   0.420   2.702  1.6144 -0.0714 -0.1218
20136SOL    HW260587   0.037   0.352   2.571 -2.5832  1.7515  1.0238
20137SOL     OW60588   5.776   3.673   5.802  0.5185 -0.0617  0.3502
20137SOL    HW160589   5.799   3.671   5.899  0.2940  0.3145  0.4098
20137SOL    HW260590   5.815   3.592   5.758  2.4656  0.8215  0.3290
20138SOL     OW60591   2.934   3.216   1.892 -0.2358 -0.0049 -0.9839
20138SOL    HW160592   2.934   3.263   1.804 -0.3141  0.8112 -0.5610
20138SOL    HW260593   2.971   3.277   1.962 -0.0049 -0.7067 -0.4826
20139SOL     OW60594   1.323   6.760   4.016 -0.0546  0.0356 -0.4375
20139SOL    HW160595   1.406   6.789   3.969  0.2547 -1.3893 -0.8326
20139SOL    HW260596   1.244   6.803   3.972  0.3878  0.5076 -0.7955
20140SOL     OW60597   4.504   5.539   0.677  0.4951  0.2191  0.2446
20140SOL    HW160598   4.410   5.574   0.680  0.9364  1.3675  1.0687
20140SOL    HW260599   4.532   5.511   0.769  0.9029 -0.2863 -0.0293
20141SOL     OW60600   6.411   3.934   3.642  0.2413  0.1771 -0.2079
20141SOL    HW160601   6.482   4.005   3.639 -0.7400  1.1947  0.0556
20141SOL    HW260602   6.433   3.868   3.715  2.6550 -1.4756 -2.2484
20142SOL     OW60603   1.465   4.411   3.397 -0.3034 -0.2705  0.5580
20142SOL    HW160604   1.424   4.371   3.479 -0.5881 -1.6903 -0.2352
20142SOL    HW260605   1.401   4.402   3.321  0.4924 -0.2289 -0.1239
20143SOL     OW60606   0.768   4.085   7.046 -0.5747  0.3995  0.1269
20143SOL    HW160607   0.844   4.027   7.075  0.5687  1.2031 -1.1362
20143SOL    HW260608   0.683   4.052   7.087  0.5457 -0.0378  2.2230
20144SOL     OW60609   0.803   7.577   2.934  0.3712 -0.0261 -0.3888
20144SOL    HW160610   0.839   7.483   2.932  1.3954  0.3266  0.4664
20144SOL    HW260611   0.857   7.634   2.872 -0.4315 -0.0387 -1.1276
20145SOL     OW60612   3.093   5.388   1.764  0.0254 -0.2597 -0.0572
20145SOL    HW160613   2.998   5.408   1.742 -0.5269 -0.9879  1.5507
20145SOL    HW260614   3.106   5.290   1.771  0.1822 -0.1205  2.5125
20146SOL     OW60615   3.242   7.788   8.484  0.1619 -0.0058 -0.1964
20146SOL    HW160616   3.305   7.721   8.523 -1.4887 -1.7062 -0.3061
20146SOL    HW260617   3.148   7.758   8.499 -0.6172  1.6820 -1.3808
20147SOL     OW60618   0.418   2.447   2.777  0.2719 -0.8861  0.1206
20147SOL    HW160619   0.454   2.408   2.862  0.2052  0.6415  0.9009
20147SOL    HW260620   0.485   2.512   2.740 -0.6033  0.0971  0.2152
20148SOL     OW60621   0.946   7.413   0.649  0.1973 -0.2304  0.4395
20148SOL    HW160622   0.919   7.408   0.553 -0.9574 -1.6248  0.8032
20148SOL    HW260623   0.961   7.509   0.674  1.0222  0.1096 -1.2445
20149SOL     OW60624   0.784   7.384   4.163  0.3344 -0.2043  0.5598
20149SOL    HW160625   0.881   7.389   4.141  0.0193  2.3059 -0.6373
20149SOL    HW260626   0.753   7.473   4.196 -2.2773  0.2079 -2.5186
20150SOL     OW60627   6.215   5.489   7.156  0.1120 -0.9773  0.3984
20150SOL    HW160628   6.182   5.448   7.241  0.2655 -0.1675  0.8547
20150SOL    HW260629   6.137   5.520   7.102  0.0406 -1.0135  0.4800
20151SOL     OW60630   3.493   8.367   0.086 -0.0185 -0.2767  0.0325
20151SOL    HW160631   3.552   8.330   0.159 -1.1040 -1.9818  0.1027
20151SOL    HW260632   3.397   8.352   0.111 -0.4693  1.2882 -0.6745
20152SOL     OW60633   5.214   5.991   4.341  0.0741 -0.1755  0.1683
20152SOL    HW160634   5.180   5.962   4.430  2.6770  0.2291  1.3618
20152SOL    HW260635   5.269   5.918   4.301 -0.3566 -0.0166 -0.7469
20153SOL     OW60636   1.470   5.097   6.380 -0.1283  0.1185  0.4383
20153SOL    HW160637   1.386   5.152   6.372  0.3263  0.6050 -1.4529
20153SOL    HW260638   1.446   5.001   6.385 -0.8275  0.2064 -0.6932
20154SOL     OW60639   0.778   1.511   6.845 -0.4120 -0.2564  0.5727
20154SOL    HW160640   0.857   1.565   6.815  0.0580 -1.9692 -1.4378
20154SOL    HW260641   0.698   1.535   6.789 -0.2711 -1.3704 -0.1426
20155SOL     OW60642   6.032   1.859   8.064 -0.1976 -0.1363 -0.6277
20155SOL    HW160643   6.090   1.935   8.095  1.5415 -1.2226 -1.0604
20155SOL    HW260644   6.057   1.776   8.113 -3.2227 -0.1890  1.0699
20156SOL     OW60645   7.585   0.215   3.948  0.2936 -0.2714 -0.0994
20156SOL    HW160646   7.600   0.140   4.012  0.6608 -0.4778 -0.4244
20156SOL    HW260647   7.665   0.274   3.946  0.2369 -0.1991 -0.2836
20157SOL     OW60648   0.875   5.878   7.036  0.0401 -0.4137  0.3917
20157SOL    HW160649   0.934   5.938   7.091  0.0925 -1.6615  1.7605
20157SOL    HW260650   0.901   5.885   6.940 -0.0038  1.7811  0.4850
20158SOL     OW60651   1.526   2.234   6.854  0.7024  0.1856 -0.2164
20158SOL    HW160652   1.545   2.186   6.939 -0.7555  0.4522  0.2982
20158SOL    HW260653   1.546   2.175   6.776  1.9641 -0.0945  0.3067
20159SOL     OW60654   7.436   8.355   3.501 -0.4235  0.2616  0.5277
20159SOL    HW160655   7.503   8.411   3.551 -0.5578  1.8171 -0.9477
20159SOL    HW260656   7.344   8.386   3.522 -0.5007  0.6079 -0.2970
20160SOL     OW60657   2.045   2.216   2.438 -0.1766  0.2960 -0.0141
20160SOL    HW160658   2.000   2.131   2.465  0.9290 -0.1136  0.6006
20160SOL    HW260659   2.036   2.283   2.512  0.1003  0.2593  0.0530
20161SOL     OW60660   3.992   8.773   1.069  0.5246 -0.8187 -0.6538
20161SOL    HW160661   3.933   8.698   1.100 -0.0414  0.7019  2.3860
20161SOL    HW260662   4.041   8.810   1.147  2.6216  0.4858 -2.4858
20162SOL     OW60663   0.986   1.906   6.345 -0.1158 -0.2400  0.1761
20162SOL    HW160664   0.968   1.999   6.376 -2.1608 -0.9274  1.2405
20162SOL    HW260665   0.975   1.900   6.246 -0.1837  0.5886  0.1282
20163SOL     OW60666   7.511   1.214   5.071 -0.0313  0.2270 -0.7280
20163SOL    HW160667   7.581   1.219   5.143 -0.0641  0.3688 -0.7054
20163SOL    HW260668   7.462   1.127   5.078 -0.1416  0.3092 -0.4786
20164SOL     OW60669   6.454   4.203   8.178 -0.0792  0.3502 -0.4696
20164SOL    HW160670   6.492   4.135   8.115 -1.2375 -1.0989  0.3117
20164SOL    HW260671   6.368   4.168   8.217  0.7555  1.0006  2.1803
20165SOL     OW60672   3.932   8.179   3.425  0.5730 -0.4600 -0.0210
20165SOL    HW160673   3.874   8.202   3.504 -1.4515 -0.1323 -1.5343
20165SOL    HW260674   3.919   8.082   3.402  1.2994 -0.6002  0.1346
20166SOL     OW60675   2.950   1.835   3.313  0.4114  0.0867 -0.6455
20166SOL    HW160676   2.898   1.904   3.263  1.6908  0.5088 -1.4294
20166SOL    HW260677   2.893   1.754   3.326 -0.4574  0.5547 -1.4211
20167SOL     OW60678   2.201   3.141   1.529  0.1062  0.1247 -0.8989
20167SOL    HW160679   2.200   3.052   1.574  0.6905  0.2403 -0.6486
20167SOL    HW260680   2.293   3.181   1.536  0.1750  0.2026 -2.0781
20168SOL     OW60681   7.705   6.324   5.887  0.1121 -0.4036  0.7093
20168SOL    HW160682   7.672   6.242   5.933  2.3505 -0.6121  2.0686
20168SOL    HW260683   7.656   6.404   5.921 -0.8393 -0.9599  0.6806
20169SOL     OW60684   7.204   0.101   5.063 -0.0187  0.7643 -0.1742
20169SOL    HW160685   7.218   0.144   4.974 -1.6570  1.0818 -0.3017
20169SOL    HW260686   7.286   0.048   5.088  0.4128  0.5732 -1.8990
20170SOL     OW60687   7.309   2.377   0.744  0.3392 -0.1231 -0.1396
20170SOL    HW160688   7.271   2.435   0.816  0.1362  0.3244 -0.5999
20170SOL    HW260689   7.319   2.431   0.660 -0.0185 -0.8008 -0.6251
20171SOL     OW60690   2.182   4.021   7.102  0.3009 -0.5271 -0.3977
20171SOL    HW160691   2.212   4.023   7.197  0.2578 -1.0562 -0.3697
20171SOL    HW260692   2.123   3.942   7.087  0.0604 -0.2796 -0.7928
20172SOL     OW60693   4.831   2.066   7.526  0.0339  0.5786 -0.3862
20172SOL    HW160694   4.919   2.019   7.539 -0.3681 -0.4446 -1.2169
20172SOL    HW260695   4.781   2.022   7.452 -0.9370  1.5301 -0.3117
20173SOL     OW60696   1.261   3.877   8.806  0.8788 -0.0440  0.1235
20173SOL    HW160697   1.286   3.923   8.721 -0.4992 -1.2247 -0.9889
20173SOL    HW260698   1.295   3.783   8.804  0.7900 -0.1001  0.8635
20174SOL     OW60699   5.169   8.270   3.915 -0.4803 -0.1182 -1.1593
20174SOL    HW160700   5.162   8.196   3.982 -2.8872 -1.3888 -2.6738
20174SOL    HW260701   5.263   8.305   3.913  0.4892 -2.4322  0.3464
20175SOL     OW60702   1.105   3.154   5.198 -0.0981 -0.2801  0.7224
20175SOL    HW160703   1.159   3.237   5.202  1.1464 -1.0967  1.5554
20175SOL    HW260704   1.012   3.173   5.230 -0.3779  1.1577 -0.8372
20176SOL     OW60705   7.558   5.991   5.048 -0.1377  0.2623  0.1753
20176SOL    HW160706   7.631   5.943   5.096  0.2509 -0.2519 -0.8868
20176SOL    HW260707   7.519   6.062   5.107  0.5107 -0.1530  1.1204
20177SOL     OW60708   0.143   6.384   5.920 -0.1900 -0.4067 -0.2297
20177SOL    HW160709   0.237   6.377   5.953 -0.0219  1.6106 -0.1808
20177SOL    HW260710   0.144   6.395   5.820 -0.4201 -0.8642 -0.2872
20178SOL     OW60711   4.302   4.317   3.674  0.1527  0.3744 -0.1314
20178SOL    HW160712   4.252   4.253   3.733  1.4428 -1.3884 -0.8435
20178SOL    HW260713   4.398   4.321   3.703  0.7949 -0.4582 -1.9739
20179SOL     OW60714   6.364   4.750   6.374  0.1145 -0.1469 -0.3534
20179SOL    HW160715   6.460   4.763   6.399 -0.0299 -1.6627  1.1216
20179SOL    HW260716   6.310   4.827   6.407  0.7070  0.3829 -0.5967
20180SOL     OW60717   5.102   3.983   2.308  0.6645 -0.3526  0.1029
20180SOL    HW160718   5.013   3.993   2.264  0.2955  1.3523  1.1213
20180SOL    HW260719   5.175   4.003   2.243  0.1798  0.8012 -0.1174
20181SOL     OW60720   1.299   4.019   1.241 -0.3396  0.2811  0.4666
20181SOL    HW160721   1.394   4.045   1.224 -0.4787  1.2293  1.0830
20181SOL    HW260722   1.251   4.095   1.286 -0.9677 -0.7656  1.6270
20182SOL     OW60723   1.359   7.293   6.106 -0.1975 -0.2535  0.0491
20182SOL    HW160724   1.438   7.354   6.103  0.2187 -0.8014 -1.2504
20182SOL    HW260725   1.335   7.274   6.201  1.7751 -0.7498  0.5011
20183SOL     OW60726   0.560   2.124   0.426  0.0387  0.3601 -0.0035
20183SOL    HW160727   0.642   2.133   0.482 -0.0684 -1.9550  0.6148
20183SOL    HW260728   0.483   2.169   0.472 -0.0360 -1.4415  1.7964
20184SOL     OW60729   6.899   1.800   8.302 -0.2061  0.0162 -0.0579
20184SOL    HW160730   6.918   1.761   8.212 -2.6671 -0.2995 -0.5130
20184SOL    HW260731   6.970   1.866   8.325  1.2829 -0.9823 -1.5427
20185SOL     OW60732   2.999   6.793   6.041  0.0118 -0.5308  0.0658
20185SOL    HW160733   2.965   6.773   5.949 -0.3349 -0.2465  0.1274
20185SOL    HW260734   3.097   6.777   6.045  0.2418  0.6161 -0.6904
20186SOL     OW60735   3.814   7.301   5.592  0.3045 -0.2372  0.1465
20186SOL    HW160736   3.773   7.302   5.501  2.8191  0.3818 -1.0904
20186SOL    HW260737   3.883   7.374   5.598  0.5106 -0.5493  2.4131
20187SOL     OW60738   0.701   8.848   8.467 -0.4353  0.2264 -0.2544
20187SOL    HW160739   0.688   8.819   8.372 -0.9008  1.1208 -0.4813
20187SOL    HW260740   0.618   8.831   8.519 -0.3146  0.0889 -0.1075
20188SOL     OW60741   1.214   2.822   7.790 -0.1379 -0.1973 -0.7112
20188SOL    HW160742   1.173   2.905   7.826  1.2969  0.5000 -0.5961
20188SOL    HW260743   1.262   2.774   7.864 -0.4518 -0.8164 -0.9027
20189SOL     OW60744   3.604   5.632   0.838  0.2610 -0.1948 -0.1585
20189SOL    HW160745   3.543   5.637   0.758  0.4835  1.6071 -0.2625
20189SOL    HW260746   3.623   5.724   0.870  2.7136 -0.7255  0.0581
20190SOL     OW60747   5.631   7.406   3.729  0.1321 -0.0216  0.6181
20190SOL    HW160748   5.541   7.363   3.719  0.0399 -0.3443  2.4325
20190SOL    HW260749   5.688   7.349   3.788  1.3809  0.4168 -0.1417
20191SOL     OW60750   4.351   2.515   2.965 -0.2602 -0.0529  0.5057
20191SOL    HW160751   4.348   2.603   2.919 -0.1577  0.0144  0.6274
20191SOL    HW260752   4.446   2.490   2.985 -0.1721 -0.8709 -0.8182
20192SOL     OW60753   8.194   0.639   7.184 -0.0441  0.4044 -0.8119
20192SOL    HW160754   8.177   0.724   7.234  2.3388  0.3159  0.2986
20192SOL    HW260755   8.120   0.574   7.201 -0.5937  1.3278  0.4718
20193SOL     OW60756   3.223   3.236   7.258  0.2411 -0.0286  0.2241
20193SOL    HW160757   3.302   3.195   7.214 -0.0905 -0.7409  0.2854
20193SOL    HW260758   3.139   3.203   7.214 -0.0509  0.1628  0.6273
20194SOL     OW60759   6.377   1.033   4.146  0.1057  0.4781 -0.2537
20194SOL    HW160760   6.366   1.101   4.218 -0.9666  1.4745 -1.2913
20194SOL    HW260761   6.319   0.954   4.165 -1.5559  1.5026 -0.8537
20195SOL     OW60762   7.120   6.263   1.824 -0.1074 -0.4905  0.1608
20195SOL    HW160763   7.189   6.334   1.838 -0.2212 -0.7127  2.1354
20195SOL    HW260764   7.163   6.173   1.834 -0.2432 -0.6921 -0.9388
20196SOL     OW60765   4.384   6.526   8.003 -0.2534 -0.2177 -0.1885
20196SOL    HW160766   4.373   6.602   8.067  1.9752 -1.5303  1.9194
20196SOL    HW260767   4.453   6.549   7.934 -1.1031  0.3963 -0.8579
20197SOL     OW60768   1.208   4.523   8.340 -0.0558 -0.2363  0.1665
20197SOL    HW160769   1.211   4.568   8.429  2.6028 -3.4378  1.9416
20197SOL    HW260770   1.296   4.535   8.294 -1.2108  0.9058 -1.9036
20198SOL     OW60771   6.801   3.205   5.271 -0.7304  0.0589  0.0380
20198SOL    HW160772   6.857   3.147   5.212  0.1406 -1.1526  1.9418
20198SOL    HW260773   6.817   3.180   5.367 -2.7215  1.3557  0.7757
20199SOL     OW60774   1.188   6.385   7.045  0.7887 -0.1768 -0.8093
20199SOL    HW160775   1.130   6.311   7.011 -1.4773  1.7334 -1.3532
20199SOL    HW260776   1.241   6.423   6.969  0.8690 -0.3102 -0.8209
20200SOL     OW60777   1.407   6.963   6.993 -0.0078  0.3267  0.0350
20200SOL    HW160778   1.415   6.939   7.090  0.0895 -1.2438 -0.3392
20200SOL    HW260779   1.330   6.913   6.952  1.0253 -0.3839 -1.0919
20201SOL     OW60780   6.845   1.563   6.370  0.2284  0.6704  0.0785
20201SOL    HW160781   6.818   1.653   6.404  0.9843  0.8623  0.2023
20201SOL    HW260782   6.945   1.560   6.362  0.1212  0.3631 -1.3869
20202SOL     OW60783   5.310   2.822   5.755 -0.3174  0.4426 -0.5367
20202SOL    HW160784   5.214   2.797   5.770 -0.9666  2.9796 -0.0273
20202SOL    HW260785   5.366   2.786   5.830 -1.6188  2.5893  1.6222
20203SOL     OW60786   7.491   1.618   7.307  0.2323 -0.4882 -0.5379
20203SOL    HW160787   7.562   1.575   7.251  1.1132  1.4274 -0.9889
20203SOL    HW260788   7.402   1.577   7.286  1.2533 -3.7365  0.8469
20204SOL     OW60789   6.701   0.169   3.177  0.7164  0.1045 -0.2071
20204SOL    HW160790   6.712   0.268   3.167 -0.0221  0.1561 -0.5726
20204SOL    HW260791   6.725   0.125   3.091  0.3072  0.0342 -0.2881
20205SOL     OW60792   1.518   3.791   4.562  0.0864  0.1354 -0.9559
20205SOL    HW160793   1.581   3.867   4.579 -1.2836  0.5809  2.9526
20205SOL    HW260794   1.436   3.825   4.517  0.1205  0.6510 -0.6251
20206SOL     OW60795   5.501   5.881   4.730 -0.2874 -0.6103  0.3039
20206SOL    HW160796   5.570   5.817   4.765  0.7128  0.9302  1.2798
20206SOL    HW260797   5.515   5.970   4.772 -1.5665  0.2994 -1.1141
20207SOL     OW60798   4.236   4.895   6.122  0.6787 -0.0813 -0.2494
20207SOL    HW160799   4.147   4.851   6.132  0.1032  1.3844  1.7790
20207SOL    HW260800   4.243   4.936   6.031 -1.0407  0.4128 -0.1930
20208SOL     OW60801   2.581   8.689   1.818  0.3884 -0.2334 -0.1892
20208SOL    HW160802   2.666   8.637   1.809 -0.0826 -1.0800  0.1022
20208SOL    HW260803   2.573   8.754   1.743  1.5019  0.1721  0.0219
20209SOL     OW60804   7.221   7.013   3.430 -0.4482  0.0490  0.1942
20209SOL    HW160805   7.159   7.036   3.505  1.2150  1.8216  1.1336
20209SOL    HW260806   7.314   7.000   3.466  0.0581 -0.9981 -1.3481
20210SOL     OW60807   7.873   0.541   4.484 -0.8447  0.0006 -0.0097
20210SOL    HW160808   7.972   0.536   4.501 -0.9445  1.3488  1.2034
20210SOL    HW260809   7.849   0.635   4.461 -1.9425 -0.1810  0.3621
20211SOL     OW60810   2.774   3.119   7.646 -0.2857  0.4133 -0.2354
20211SOL    HW160811   2.746   3.065   7.726 -0.5875 -0.6457 -1.0287
20211SOL    HW260812   2.850   3.073   7.600 -0.1143  1.0190 -0.5611
20212SOL     OW60813   0.197   2.982   6.477 -0.0990 -0.9254 -0.2934
20212SOL    HW160814   0.295   2.992   6.491 -0.3245  0.3841  0.5773
20212SOL    HW260815   0.168   2.891   6.506  0.6613 -0.8808  0.6620
20213SOL     OW60816   4.756   6.408   3.298 -0.2899 -0.2096 -0.6923
20213SOL    HW160817   4.762   6.386   3.395  3.3238  3.0936  0.0783
20213SOL    HW260818   4.700   6.490   3.286 -1.6680 -1.2530 -1.6032
20214SOL     OW60819   8.420   8.820   7.805 -0.4768 -0.3649  0.4024
20214SOL    HW160820   8.358   8.800   7.881  1.5866 -1.3575  1.9066
20214SOL    HW260821   8.406   8.754   7.732 -0.7134 -1.0008  1.0156
20215SOL     OW60822   7.077   3.378   3.702 -0.3079 -0.1433 -0.4761
20215SOL    HW160823   7.169   3.403   3.729 -0.3307 -1.1626  0.6115
20215SOL    HW260824   7.019   3.459   3.698  0.8051  0.6247 -1.9860
20216SOL     OW60825   2.417   2.242   0.300  0.3395 -0.0268  0.4123
20216SOL    HW160826   2.320   2.266   0.301  0.2745 -0.2828  1.1482
20216SOL    HW260827   2.461   2.282   0.220  0.1444  2.1003  1.2949
20217SOL     OW60828   7.015   7.937   4.865  0.0716 -0.2961 -0.4927
20217SOL    HW160829   7.032   7.908   4.771  0.5415 -1.8167  0.0337
20217SOL    HW260830   6.938   8.001   4.867 -0.0323 -0.3595 -1.8870
20218SOL     OW60831   0.037   6.309   0.662 -0.0298  0.4874 -0.5783
20218SOL    HW160832   0.008   6.385   0.721  1.2189  0.2078  0.4284
20218SOL    HW260833   0.002   6.223   0.699  4.1195 -0.2366  2.3318
20219SOL     OW60834   4.191   7.337   6.912 -0.4983 -0.1751  0.6719
20219SOL    HW160835   4.186   7.394   6.829 -1.5378 -1.7607 -0.4077
20219SOL    HW260836   4.287   7.324   6.937 -0.1535  0.1372 -0.4309
20220SOL     OW60837   0.899   8.501   3.650  0.0075 -0.0782 -0.3049
20220SOL    HW160838   0.867   8.475   3.559 -2.1595 -2.5919  1.0159
20220SOL    HW260839   0.871   8.431   3.716 -0.7584  2.8269  2.7395
20221SOL     OW60840   6.535   6.508   0.067  0.2651  0.5829  0.3180
20221SOL    HW160841   6.574   6.424   0.028  1.8353  0.6214  1.6980
20221SOL    HW260842   6.435   6.504   0.063  0.3088 -1.3376  0.3363
20222SOL     OW60843   4.344   0.712   7.431 -0.3521  0.3366  0.1780
20222SOL    HW160844   4.249   0.743   7.431 -0.5283 -0.1801  0.6298
20222SOL    HW260845   4.359   0.651   7.509  0.0057 -0.6443 -0.6356
20223SOL     OW60846   4.270   6.098   7.106  0.0879  0.2667 -0.4139
20223SOL    HW160847   4.180   6.056   7.112 -0.8725  2.2344 -0.0337
20223SOL    HW260848   4.329   6.063   7.178 -0.9554  0.2241  0.4319
20224SOL     OW60849   4.074   3.246   3.009 -0.1219 -0.1997  0.1034
20224SOL    HW160850   4.066   3.338   3.046  1.0150 -0.8612  2.1695
20224SOL    HW260851   4.165   3.234   2.970 -0.5907 -0.1881 -1.0432
20225SOL     OW60852   4.858   8.611   8.266  0.5493  0.6343  0.6160
20225SOL    HW160853   4.795   8.676   8.223  0.6148  0.1042 -0.3081
20225SOL    HW260854   4.941   8.603   8.210  1.2255  0.9330  1.5467
20226SOL     OW60855   3.766   1.326   0.627 -0.2807  0.2462 -0.5561
20226SOL    HW160856   3.797   1.420   0.638 -0.0321  0.0979  0.0537
20226SOL    HW260857   3.805   1.288   0.543 -0.8948  0.8801 -1.1490
20227SOL     OW60858   0.136   6.194   4.832  0.1128  0.1269  0.3529
20227SOL    HW160859   0.127   6.161   4.926 -0.3150  0.8848  0.5816
20227SOL    HW260860   0.216   6.253   4.826  0.2018 -0.0077  0.2133
20228SOL     OW60861   4.999   5.450   0.212  0.3971  0.3263  0.2695
20228SOL    HW160862   5.015   5.357   0.246 -0.3681  0.4875  1.1009
20228SOL    HW260863   5.086   5.492   0.188  0.7498 -0.6242 -0.1774
20229SOL     OW60864   7.941   4.702   2.682 -0.1208  0.7215 -0.1145
20229SOL    HW160865   7.987   4.663   2.603  1.7521  0.1185  1.1999
20229SOL    HW260866   7.906   4.793   2.659  0.6045  0.6575 -1.5452
20230SOL     OW60867   4.637   7.402   0.139  0.0397  0.2171  0.3859
20230SOL    HW160868   4.628   7.432   0.044  0.0223  0.2574  0.4004
20230SOL    HW260869   4.699   7.324   0.144  0.3912  0.4903  0.3931
20231SOL     OW60870   0.796   4.134   5.684 -0.7892  0.4992 -0.3317
20231SOL    HW160871   0.838   4.197   5.620  1.3661  0.0308  0.5245
20231SOL    HW260872   0.743   4.185   5.752  0.5770  1.3971  0.1035
20232SOL     OW60873   8.137   0.414   3.791 -0.1448  1.0554 -0.5081
20232SOL    HW160874   8.105   0.357   3.867 -1.8482  0.8005 -1.3788
20232SOL    HW260875   8.207   0.364   3.740 -0.1509  0.5682 -0.0471
20233SOL     OW60876   6.497   4.154   0.661 -0.3646 -0.5058  0.0806
20233SOL    HW160877   6.548   4.200   0.589 -0.5386 -2.0258 -1.0635
20233SOL    HW260878   6.410   4.122   0.625 -0.9868 -0.2542  1.3067
20234SOL     OW60879   3.362   7.957   3.361 -0.1151 -0.4688 -0.3107
20234SOL    HW160880   3.326   7.867   3.385  0.8210 -0.2228  2.3782
20234SOL    HW260881   3.462   7.956   3.370 -0.1621  1.0546  0.7399
20235SOL     OW60882   4.071   2.703   0.395  0.3738 -0.2065 -0.0554
20235SOL    HW160883   4.079   2.605   0.415  1.5844 -0.0010  0.5652
20235SOL    HW260884   4.055   2.716   0.297  0.4180 -1.0099 -0.1766
20236SOL     OW60885   8.405   6.288   3.624  0.3261  0.3982 -0.0156
20236SOL    HW160886   8.307   6.282   3.606  0.3416 -1.3433  0.3283
20236SOL    HW260887   8.454   6.305   3.538 -0.3191  2.6606 -0.0142
20237SOL     OW60888   2.398   4.122   8.741  0.6256  0.8802 -0.0741
20237SOL    HW160889   2.483   4.083   8.778 -0.2423 -0.8590  0.1844
20237SOL    HW260890   2.374   4.075   8.656 -0.9393  0.1485  0.7264
20238SOL     OW60891   2.362   0.297   1.212  0.3802  0.2473  0.9102
20238SOL    HW160892   2.423   0.318   1.136  0.7811 -0.2026  1.0954
20238SOL    HW260893   2.282   0.356   1.209  0.1052 -0.1677 -0.1997
20239SOL     OW60894   0.332   8.057   4.833  0.3977  0.9172  0.3779
20239SOL    HW160895   0.353   7.982   4.771 -1.5744  0.0308  0.6750
20239SOL    HW260896   0.315   8.141   4.781 -0.9496  0.2521 -0.2974
20240SOL     OW60897   7.633   6.138   3.280 -0.2470  0.0837 -0.3221
20240SOL    HW160898   7.664   6.227   3.247  1.4000 -0.4946 -0.4414
20240SOL    HW260899   7.642   6.134   3.379 -0.4488  0.0966 -0.3031
20241SOL     OW60900   0.626   4.514   8.413  0.2601  0.1202 -0.0412
20241SOL    HW160901   0.690   4.524   8.337  0.3793  0.8239  0.1367
20241SOL    HW260902   0.665   4.555   8.495  0.6117 -1.6268  0.7023
20242SOL     OW60903   3.427   2.490   0.496  0.2883  0.1878 -0.0144
20242SOL    HW160904   3.436   2.527   0.403 -1.7501  2.1020  0.4638
20242SOL    HW260905   3.391   2.561   0.557  1.7399 -0.9566  2.3264
20243SOL     OW60906   1.871   0.118   7.479 -0.4621 -0.1305  0.3860
20243SOL    HW160907   1.849   0.125   7.382  1.1623  3.1145  0.1382
20243SOL    HW260908   1.970   0.119   7.491 -0.6308 -0.5456  2.0932
20244SOL     OW60909   3.431   5.694   0.569  0.3028  0.2484  0.2685
20244SOL    HW160910   3.528   5.674   0.562  0.3551  0.5841  0.0353
20244SOL    HW260911   3.387   5.679   0.480  0.1567  0.1801  0.3508
20245SOL     OW60912   5.046   0.874   5.558  0.0782  0.7288 -0.3355
20245SOL    HW160913   5.046   0.812   5.636 -0.7177  1.9135  0.6577
20245SOL    HW260914   5.128   0.931   5.561  1.8068 -1.4978 -2.3307
20246SOL     OW60915   6.668   6.305   3.688  0.0891  0.7353  0.4596
20246SOL    HW160916   6.588   6.317   3.630  0.8024  0.0861 -0.6920
20246SOL    HW260917   6.735   6.376   3.668  0.6115  0.1212  0.0004
20247SOL     OW60918   6.726   5.812   0.189 -0.4529 -0.0695  0.5815
20247SOL    HW160919   6.682   5.739   0.137  0.2027  0.9453 -1.5145
20247SOL    HW260920   6.801   5.774   0.243 -0.5982 -1.0347  0.1322
20248SOL     OW60921   6.249   1.250   3.170  0.2911 -0.2089 -0.3207
20248SOL    HW160922   6.199   1.261   3.256 -0.3941  0.2917 -0.7743
20248SOL    HW260923   6.320   1.320   3.164 -0.7587  0.8527 -0.9023
20249SOL     OW60924   0.873   0.992   1.144  0.3409 -0.6753  0.3277
20249SOL    HW160925   0.776   0.982   1.166  0.7385 -1.7115  1.8011
20249SOL    HW260926   0.915   0.901   1.136  1.4227 -0.2422  0.8914
20250SOL     OW60927   0.398   1.910   0.952  0.5980 -0.3908  0.1081
20250SOL    HW160928   0.299   1.910   0.934  0.7205  1.9723 -0.9860
20250SOL    HW260929   0.414   1.914   1.051 -0.3875 -1.0185  0.3057
20251SOL     OW60930   7.436   6.092   2.541  0.1767 -0.3845  0.5705
20251SOL    HW160931   7.349   6.043   2.532 -1.3624  1.8675  2.0083
20251SOL    HW260932   7.466   6.090   2.636  0.6338  0.5403  0.4607
20252SOL     OW60933   0.409   5.013   5.384 -0.2251 -0.4852 -0.4512
20252SOL    HW160934   0.460   5.098   5.370  0.8340 -0.6966  1.7246
20252SOL    HW260935   0.440   4.945   5.318  0.9764 -0.0369 -0.3723
20253SOL     OW60936   5.848   0.971   0.053 -0.6809 -0.3509 -0.1200
20253SOL    HW160937   5.833   0.876   0.026 -0.2076 -0.1676 -1.0834
20253SOL    HW260938   5.922   0.975   0.120  1.6745 -0.4239 -2.5323
20254SOL     OW60939   6.545   0.656   0.373  0.0027  1.0788 -0.1588
20254SOL    HW160940   6.478   0.633   0.302  0.1981 -0.3860  0.1002
20254SOL    HW260941   6.503   0.646   0.463  0.3826  0.7361 -0.0133
20255SOL     OW60942   7.556   7.361   6.005 -0.0497  0.2376  0.0972
20255SOL    HW160943   7.520   7.414   5.928  0.5810 -0.3220 -0.6015
20255SOL    HW260944   7.649   7.392   6.026 -0.6316  1.1728  1.4047
20256SOL     OW60945   4.862   5.842   7.074  0.1837  0.0490  0.3975
20256SOL    HW160946   4.880   5.843   6.975  1.2492  1.4554  0.5640
20256SOL    HW260947   4.946   5.816   7.122 -0.0190  0.4212  0.9621
20257SOL     OW60948   3.104   7.177   2.513 -1.2135 -0.1058  0.7200
20257SOL    HW160949   3.152   7.118   2.578 -0.3163  0.3021  0.4465
20257SOL    HW260950   3.086   7.265   2.556 -1.3913 -0.1336  0.7015
20258SOL     OW60951   2.903   5.319   3.868 -0.3388 -0.4268 -0.4708
20258SOL    HW160952   2.907   5.219   3.869  0.2279 -0.4071 -0.7509
20258SOL    HW260953   2.852   5.349   3.787 -0.8581 -0.4979 -0.1731
20259SOL     OW60954   8.546   0.228   6.730 -0.0258 -0.0670  0.7394
20259SOL    HW160955   8.628   0.277   6.757 -1.1462  1.6454  1.2182
20259SOL    HW260956   8.554   0.131   6.754  1.0872  0.4350  2.4822
20260SOL     OW60957   8.083   1.516   6.000  0.1459 -0.1293  0.2143
20260SOL    HW160958   8.074   1.608   6.040 -1.1885 -0.0754 -0.1954
20260SOL    HW260959   8.055   1.518   5.904  0.8939 -0.8109 -0.0337
20261SOL     OW60960   1.057   8.037   5.578 -0.0063 -0.3743  0.0762
20261SOL    HW160961   1.069   8.136   5.580 -0.9297 -0.2630  1.1943
20261SOL    HW260962   1.002   8.008   5.657 -0.0370 -1.7378 -0.4133
20262SOL     OW60963   5.078   7.534   4.707  0.0011 -0.0488  0.7721
20262SOL    HW160964   5.038   7.493   4.789 -2.2153  0.7256  0.1505
20262SOL    HW260965   5.010   7.594   4.664  1.8360  1.2235 -0.4628
20263SOL     OW60966   6.637   8.685   3.069  0.9694  0.4725  0.5283
20263SOL    HW160967   6.636   8.700   2.970  0.3176  2.3080  0.7696
20263SOL    HW260968   6.547   8.653   3.099  1.3524 -0.6945  0.4620
20264SOL     OW60969   5.843   1.901   6.903  0.4446 -0.4152  0.8366
20264SOL    HW160970   5.828   1.995   6.873  2.0278 -0.0078  1.2445
20264SOL    HW260971   5.935   1.891   6.940  0.8057 -2.4302 -0.4013
20265SOL     OW60972   6.025   2.330   4.445 -0.5705  0.3562 -0.0483
20265SOL    HW160973   6.049   2.419   4.405 -0.4582  0.6321  0.6172
20265SOL    HW260974   5.938   2.299   4.407 -0.8258  0.9583  0.0258
20266SOL     OW60975   0.059   1.692   1.596  0.1109  0.4056 -0.6010
20266SOL    HW160976   0.105   1.771   1.637  2.4121 -1.1169 -0.0729
20266SOL    HW260977   0.032   1.628   1.668  1.2687 -0.7932 -1.1959
20267SOL     OW60978   0.245   2.890   1.862  0.3728  0.5188 -0.5384
20267SOL    HW160979   0.303   2.812   1.885 -3.8225 -3.0277 -0.5864
20267SOL    HW260980   0.251   2.907   1.764 -0.2867 -1.3918 -0.9609
20268SOL     OW60981   7.966   1.023   1.744  0.0558  0.0624  0.0495
20268SOL    HW160982   8.007   0.962   1.812  0.0028 -0.8307 -0.6960
20268SOL    HW260983   7.889   1.071   1.785  1.2423  1.0723  1.2054
20269SOL     OW60984   1.447   1.365   3.851 -0.3989 -0.5688  0.4956
20269SOL    HW160985   1.389   1.375   3.770 -0.1723 -0.8359  0.2952
20269SOL    HW260986   1.516   1.437   3.852  0.4487 -1.3527 -0.2762
20270SOL     OW60987   2.879   3.935   7.711 -0.3852  0.2300 -0.0892
20270SOL    HW160988   2.802   3.998   7.703 -2.1153 -1.7809 -0.1316
20270SOL    HW260989   2.910   3.909   7.620 -1.4721 -1.0118 -0.1325
20271SOL     OW60990   4.695   8.018   0.920  0.1001  0.3121 -0.5988
20271SOL    HW160991   4.723   7.929   0.885 -0.4021 -0.1350  0.1142
20271SOL    HW260992   4.770   8.059   0.971 -0.1684 -0.3867  0.3660
20272SOL     OW60993   0.839   1.399   3.348  0.2929 -0.0736  0.3920
20272SOL    HW160994   0.881   1.365   3.264  2.0211  0.3794  1.0357
20272SOL    HW260995   0.739   1.396   3.339  0.4379 -0.9128 -1.3013
20273SOL     OW60996   8.676   0.432   3.648  0.1818 -0.0739 -0.0038
20273SOL    HW160997   8.608   0.495   3.610  0.6943  0.8778  0.6221
20273SOL    HW260998   8.765   0.451   3.608  0.8205  1.2094  1.8693
20274SOL     OW60999   3.994   2.055   5.568  0.1994 -0.5334 -0.2004
20274SOL    HW161000   4.009   1.976   5.510  1.0079 -0.1379 -0.5441
20274SOL    HW261001   3.973   2.135   5.511 -0.3278 -0.4322  0.1259
20275SOL     OW61002   2.742   1.127   1.507  0.1436 -0.3159  0.1800
20275SOL    HW161003   2.759   1.221   1.477  0.0910 -0.1866  0.5540
20275SOL    HW261004   2.648   1.101   1.484  0.1685 -0.2882  0.0474
20276SOL     OW61005   4.807   3.226   8.468  0.3740 -0.1092  0.3110
20276SOL    HW161006   4.838   3.131   8.469 -0.3681 -0.5074 -2.8976
20276SOL    HW261007   4.725   3.233   8.411 -0.2786  2.3108  1.4309
20277SOL     OW61008   4.684   3.837   4.468 -0.0630 -0.0668  0.1422
20277SOL    HW161009   4.712   3.800   4.379  1.0460  0.8051  0.1059
20277SOL    HW261010   4.650   3.763   4.526  0.1476 -0.8007 -0.6494
20278SOL     OW61011   0.903   8.629   6.811 -0.0241  0.0688 -0.0940
20278SOL    HW161012   0.928   8.533   6.822 -1.8710 -0.4174  0.1694
20278SOL    HW261013   0.901   8.673   6.901 -0.5888 -0.0212 -0.0631
20279SOL     OW61014   0.107   4.522   7.726  0.6788  0.0364  0.0793
20279SOL    HW161015   0.204   4.548   7.722  0.8630 -0.7716 -1.1048
20279SOL    HW261016   0.060   4.580   7.793  2.5067 -1.3163  2.7327
20280SOL     OW61017   4.661   7.921   6.570  0.3164 -0.2379 -0.0298
20280SOL    HW161018   4.725   7.847   6.592 -0.2119 -0.7345 -0.1252
20280SOL    HW261019   4.614   7.951   6.653 -0.8205 -1.3021 -0.2587
20281SOL     OW61020   2.260   1.150   2.981 -0.4973  0.1410 -0.0200
20281SOL    HW161021   2.177   1.191   2.943  0.1569 -0.3472 -2.1320
20281SOL    HW261022   2.338   1.175   2.924  0.6154 -0.4049  1.2209
20282SOL     OW61023   4.432   4.943   3.945 -0.3599 -0.1668  0.6177
20282SOL    HW161024   4.516   4.954   3.997 -0.6169 -2.0688  1.5057
20282SOL    HW261025   4.353   4.966   4.003 -0.5783 -0.9341  0.6285
20283SOL     OW61026   1.306   5.372   8.514 -0.0045  0.1517 -0.9676
20283SOL    HW161027   1.319   5.324   8.600 -0.1492 -0.5089 -1.3032
20283SOL    HW261028   1.260   5.311   8.449 -1.4451  1.2135 -0.9662
20284SOL     OW61029   6.263   4.211   7.360 -0.2427 -0.7058  0.0244
20284SOL    HW161030   6.198   4.139   7.337 -0.3082 -1.0706  1.2859
20284SOL    HW261031   6.351   4.171   7.382 -0.1350 -0.3619  0.2301
20285SOL     OW61032   2.154   5.049   5.850  0.2064 -0.2515  0.1348
20285SOL    HW161033   2.120   5.072   5.941  0.8661  1.0230  0.0909
20285SOL    HW261034   2.214   4.969   5.855 -0.1909 -0.5118  0.7319
20286SOL     OW61035   3.076   7.293   6.093  0.0078  0.3478 -0.1003
20286SOL    HW161036   3.054   7.265   6.187  0.1367 -1.5862 -0.6144
20286SOL    HW261037   3.165   7.257   6.067  0.6556  2.1419 -0.4886
20287SOL     OW61038   5.501   5.325   7.024  0.0088  0.1242  0.5242
20287SOL    HW161039   5.508   5.418   6.989 -0.5418 -0.0463 -0.0517
20287SOL    HW261040   5.406   5.307   7.051 -0.2908 -0.8649 -1.0846
20288SOL     OW61041   3.750   8.165   3.849 -0.3095  0.4533 -0.7511
20288SOL    HW161042   3.822   8.139   3.913  0.3263  0.8553 -1.2878
20288SOL    HW261043   3.690   8.086   3.832 -1.8763  0.8876  2.0309
20289SOL     OW61044   6.121   3.475   8.185 -0.1971  0.0887  0.6987
20289SOL    HW161045   6.105   3.535   8.264 -0.5419  0.0126  0.6876
20289SOL    HW261046   6.218   3.474   8.163 -0.0817  0.0222  1.1966
20290SOL     OW61047   3.674   7.528   5.672 -0.3328 -0.1852  0.9373
20290SOL    HW161048   3.723   7.445   5.646  2.1328  1.7786 -1.2380
20290SOL    HW261049   3.594   7.539   5.613  2.0883  1.3274 -2.4033
20291SOL     OW61050   0.713   6.734   6.539  0.1869 -0.0057 -0.2852
20291SOL    HW161051   0.799   6.729   6.590  0.5398 -0.4151 -0.9156
20291SOL    HW261052   0.722   6.685   6.453 -0.4859  0.4726 -0.6399
20292SOL     OW61053   5.607   2.188   6.526 -0.2574 -0.3127 -0.3704
20292SOL    HW161054   5.680   2.256   6.519  0.9168 -1.5567 -0.6639
20292SOL    HW261055   5.531   2.227   6.577  0.5627  1.0507 -0.1106
20293SOL     OW61056   6.793   0.614   6.962  0.1242 -0.6151 -0.2430
20293SOL    HW161057   6.721   0.654   6.906 -0.3336  2.5774  2.3077
20293SOL    HW261058   6.870   0.677   6.968  0.4267 -1.0887  2.0669
20294SOL     OW61059   7.175   8.134   8.404  0.6517 -0.2183  0.1217
20294SOL    HW161060   7.184   8.096   8.312 -0.0821 -0.0544 -0.0274
20294SOL    HW261061   7.173   8.060   8.470 -2.3645 -0.6428 -0.2899
20295SOL     OW61062   5.636   8.147   6.725 -0.0906  0.4019 -0.2388
20295SOL    HW161063   5.612   8.178   6.817  1.8853 -0.1710  0.5247
20295SOL    HW261064   5.567   8.082   6.692 -0.0590 -0.5651  1.4791
20296SOL     OW61065   4.486   1.137   0.930  0.4748  0.1696 -0.1487
20296SOL    HW161066   4.417   1.148   1.001  0.7045  0.0578  0.0977
20296SOL    HW261067   4.515   1.041   0.927 -0.4364 -0.0934 -1.2517
20297SOL     OW61068   3.895   3.516   1.372 -0.1553 -0.0323 -0.1497
20297SOL    HW161069   3.928   3.421   1.370 -1.9288 -0.7263  0.7674
20297SOL    HW261070   3.834   3.532   1.294  0.6595  0.5875 -0.6761
20298SOL     OW61071   5.734   1.158   1.497  0.0923 -0.0290  0.5512
20298SOL    HW161072   5.817   1.146   1.552 -0.0060 -0.1199  0.6793
20298SOL    HW261073   5.759   1.194   1.407  0.6097 -2.8591 -0.5474
20299SOL     OW61074   7.716   1.948   5.753 -0.0235  0.3839 -0.1650
20299SOL    HW161075   7.708   1.901   5.665 -0.2824 -2.5177  1.2837
20299SOL    HW261076   7.787   2.018   5.747  2.2710 -1.8946 -1.8511
20300SOL     OW61077   5.517   5.087   1.882 -0.4236  0.0026  0.1413
20300SOL    HW161078   5.441   5.095   1.819 -0.4576 -0.7025  0.0879
20300SOL    HW261079   5.598   5.054   1.834  0.4815  2.5048 -0.2151
20301SOL     OW61080   7.624   2.454   5.438  0.0547  0.0515  0.4174
20301SOL    HW161081   7.581   2.426   5.524 -1.0586 -1.2634 -0.5143
20301SOL    HW261082   7.697   2.519   5.457 -2.1348  2.2453  2.1646
20302SOL     OW61083   4.014   3.348   7.570  0.0720 -0.2334 -0.2130
20302SOL    HW161084   4.032   3.352   7.471 -0.7905 -0.8550 -0.4014
20302SOL    HW261085   3.952   3.273   7.590 -1.1778  0.9610  0.5940
20303SOL     OW61086   0.609   4.260   8.771 -0.7298 -0.2489 -0.0236
20303SOL    HW161087   0.561   4.219   8.848 -1.3491 -1.1122 -0.8423
20303SOL    HW261088   0.688   4.204   8.747 -0.7023 -0.1436 -0.1864
20304SOL     OW61089   0.695   5.537   4.035 -0.3476 -0.2408 -0.0621
20304SOL    HW161090   0.662   5.618   3.987 -0.6427  0.5253  1.3701
20304SOL    HW261091   0.626   5.506   4.101 -0.5038 -2.0587 -1.0197
20305SOL     OW61092   4.607   2.848   7.791  0.6334  0.7710 -0.1395
20305SOL    HW161093   4.694   2.897   7.799  0.2168  1.5921 -0.5785
20305SOL    HW261094   4.571   2.859   7.698  0.6780 -0.6173 -0.3368
20306SOL     OW61095   1.938   0.526   1.038 -0.1339 -0.2057  0.2695
20306SOL    HW161096   1.885   0.611   1.041  1.2564  0.6828  1.9078
20306SOL    HW261097   1.877   0.448   1.039 -1.4353  0.7723 -0.3450
20307SOL     OW61098   1.333   6.580   8.142 -0.7310 -0.7178 -0.2151
20307SOL    HW161099   1.264   6.617   8.205 -0.0824 -0.7171  0.5098
20307SOL    HW261100   1.354   6.649   8.073  0.9335  0.6097  1.4935
20308SOL     OW61101   6.921   1.158   2.004 -0.3322  0.0375  0.3265
20308SOL    HW161102   6.845   1.106   2.041 -0.2486 -0.6675 -0.4541
20308SOL    HW261103   6.999   1.096   1.989  0.7315  0.9064  1.9891
20309SOL     OW61104   8.764   7.803   1.008  0.8635 -0.6667  0.4115
20309SOL    HW161105   8.850   7.786   1.056  1.2141 -1.7666 -0.5523
20309SOL    HW261106   8.688   7.773   1.066  1.1896 -0.6788  0.8421
20310SOL     OW61107   7.639   4.501   4.287 -0.5746 -0.5824  0.4479
20310SOL    HW161108   7.637   4.427   4.353 -3.9769 -2.4809 -1.4839
20310SOL    HW261109   7.702   4.478   4.213 -1.2267 -1.3501  0.1163
20311SOL     OW61110   1.529   1.102   6.020 -0.1821  0.5486  0.1037
20311SOL    HW161111   1.628   1.114   6.019  0.1843 -1.9601 -0.2645
20311SOL    HW261112   1.500   1.072   6.111 -0.5954  1.0927  0.1581
20312SOL     OW61113   3.657   8.407   6.744  0.0901  0.4693 -0.6551
20312SOL    HW161114   3.688   8.492   6.785 -0.1655  0.8568 -1.2591
20312SOL    HW261115   3.557   8.407   6.739 -0.0419 -0.6561  1.0338
20313SOL     OW61116   1.314   6.224   0.655  0.0591 -0.0574  0.4525
20313SOL    HW161117   1.238   6.279   0.691  1.9139  1.2357  2.6859
20313SOL    HW261118   1.327   6.244   0.558 -1.2079  1.1764  0.5028
20314SOL     OW61119   3.743   3.720   4.766  0.0278 -0.4157  0.0029
20314SOL    HW161120   3.704   3.707   4.674 -0.0734 -1.0701  0.1367
20314SOL    HW261121   3.841   3.738   4.758  0.1337 -1.0748 -0.2003
20315SOL     OW61122   1.073   6.024   5.729 -0.0703  0.3099  0.1384
20315SOL    HW161123   1.108   5.931   5.729  1.4545  0.8419 -0.7385
20315SOL    HW261124   1.147   6.088   5.752 -1.1020  1.3031  0.8092
20316SOL     OW61125   0.236   4.425   7.994  0.4288  0.4416 -0.1009
20316SOL    HW161126   0.177   4.446   7.916  0.8822  1.0752 -0.2777
20316SOL    HW261127   0.179   4.410   8.075  0.0686  3.2415  0.2553
20317SOL     OW61128   0.600   5.830   2.177  0.5364  0.9552  0.5434
20317SOL    HW161129   0.679   5.773   2.156  0.4126  0.9461  0.0860
20317SOL    HW261130   0.549   5.849   2.093  2.0099  3.8974  0.1852
20318SOL     OW61131   4.829   7.191   3.288 -0.5491  0.6178  0.2733
20318SOL    HW161132   4.843   7.131   3.366  0.8408  1.5052  0.7207
20318SOL    HW261133   4.910   7.190   3.229 -1.8751 -0.7048 -1.6654
20319SOL     OW61134   5.776   3.363   7.081 -0.2275  0.3028  0.2312
20319SOL    HW161135   5.872   3.341   7.060  0.6369  2.3130  1.7729
20319SOL    HW261136   5.744   3.434   7.018 -1.1353 -1.1180 -0.9962
20320SOL     OW61137   1.873   2.433   0.199 -0.5077 -0.8261  0.0039
20320SOL    HW161138   1.909   2.512   0.150 -1.5425  0.6493  1.5041
20320SOL    HW261139   1.926   2.419   0.283  0.6304 -2.7167 -0.9490
20321SOL     OW61140   2.500   5.886   8.814  0.6557  0.2679 -0.0491
20321SOL    HW161141   2.595   5.909   8.832  0.6941  1.1694 -1.2671
20321SOL    HW261142   2.480   5.901   8.717 -0.0350 -2.4227 -0.4157
20322SOL     OW61143   2.739   2.296   8.381  0.0914 -0.5351 -0.4700
20322SOL    HW161144   2.699   2.207   8.357 -0.4397 -0.4177 -0.0350
20322SOL    HW261145   2.810   2.283   8.451 -0.5050 -0.5357  0.1373
20323SOL     OW61146   5.705   7.556   5.556 -0.2798 -0.5182 -0.7904
20323SOL    HW161147   5.775   7.524   5.619 -1.5474  0.7523  1.3598
20323SOL    HW261148   5.747   7.573   5.466  2.1160 -0.0339  0.3405
20324SOL     OW61149   1.583   4.600   6.697 -0.6456 -0.1091 -0.3472
20324SOL    HW161150   1.508   4.541   6.726  0.5391 -1.1762  0.6344
20324SOL    HW261151   1.669   4.566   6.735 -0.0130  2.7502  1.0515
20325SOL     OW61152   0.187   5.311   3.823  0.0601 -0.1789  0.5625
20325SOL    HW161153   0.200   5.269   3.733  1.3099  0.2874  0.5040
20325SOL    HW261154   0.276   5.322   3.867 -0.4395  0.6366  1.3907
20326SOL     OW61155   7.999   7.192   1.788  0.3176 -0.6066 -0.3498
20326SOL    HW161156   7.900   7.176   1.791  0.1471 -1.0336 -3.8886
20326SOL    HW261157   8.032   7.176   1.695  3.6535  0.1479  0.5850
20327SOL     OW61158   7.031   1.348   2.848  0.4982  0.0530  0.1915
20327SOL    HW161159   6.983   1.372   2.932  0.2243  0.9122 -0.1990
20327SOL    HW261160   7.054   1.251   2.850  0.3763  0.0319  1.1944
20328SOL     OW61161   8.297   1.670   0.831  0.3804  0.0469 -0.0979
20328SOL    HW161162   8.309   1.768   0.813  0.6110 -0.0143 -0.2823
20328SOL    HW261163   8.347   1.645   0.914 -1.1729  0.4500  1.0047
20329SOL     OW61164   1.235   4.408   1.743 -0.9426  0.5652 -0.3715
20329SOL    HW161165   1.331   4.416   1.769 -1.3382 -0.0122  1.3833
20329SOL    HW261166   1.214   4.313   1.719 -1.5833  0.1941  1.5344
20330SOL     OW61167   3.526   4.366   8.254  0.2557  0.2256  0.5475
20330SOL    HW161168   3.474   4.326   8.330  0.6151  0.5601  0.9761
20330SOL    HW261169   3.479   4.347   8.168 -0.8314  0.9220  0.9587
20331SOL     OW61170   1.102   0.479   4.925 -0.4631 -0.2534  0.0433
20331SOL    HW161171   1.194   0.509   4.899 -0.5372  1.1388  1.2297
20331SOL    HW261172   1.065   0.419   4.854  0.9470  0.0009 -0.9529
20332SOL     OW61173   0.166   5.631   6.811  0.2244 -0.2153  0.1706
20332SOL    HW161174   0.225   5.698   6.766 -1.2613  1.1316  0.1284
20332SOL    HW261175   0.211   5.542   6.813  1.6768  0.4591 -1.0245
20333SOL     OW61176   3.569   2.123   7.137 -0.2166 -0.2480  0.2201
20333SOL    HW161177   3.477   2.135   7.176  0.2503  0.3388  1.1867
20333SOL    HW261178   3.614   2.045   7.180  0.6022  0.8827  1.5042
20334SOL     OW61179   1.446   2.778   0.675 -0.1315 -0.1024 -0.4553
20334SOL    HW161180   1.356   2.738   0.657 -0.1789  0.4631 -1.6008
20334SOL    HW261181   1.513   2.736   0.614  0.5413 -1.0392  0.8932
20335SOL     OW61182   0.394   0.052   1.169 -0.3453 -0.2694  0.0997
20335SOL    HW161183   0.323  -0.013   1.143  1.2144 -2.0127 -0.0250
20335SOL    HW261184   0.357   0.117   1.236 -2.1912 -0.7354 -0.4181
20336SOL     OW61185   5.017   6.173   0.671 -0.2143 -0.2417  0.3239
20336SOL    HW161186   5.109   6.180   0.632  0.1251 -0.4010  1.0814
20336SOL    HW261187   4.987   6.078   0.667 -0.1100 -0.2875  0.5935
20337SOL     OW61188   5.946   6.237   6.560  0.8742 -0.2783  0.0676
20337SOL    HW161189   5.884   6.287   6.500  0.5178 -1.0131 -0.1953
20337SOL    HW261190   6.019   6.195   6.506  2.2840  1.5239  0.5055
20338SOL     OW61191   1.823   5.460   5.432 -0.4829 -0.2257  0.3115
20338SOL    HW161192   1.887   5.384   5.424 -0.5473 -0.5718  2.4867
20338SOL    HW261193   1.863   5.532   5.489 -0.5809  1.2406 -1.3800
20339SOL     OW61194   2.688   0.624   7.159 -0.1229 -0.4698 -0.0270
20339SOL    HW161195   2.707   0.622   7.061 -2.2432 -0.7179 -0.4814
20339SOL    HW261196   2.694   0.532   7.196  2.2411 -0.1713  0.4506
20340SOL     OW61197   6.702   8.081   4.831 -0.2229 -0.1238 -0.2970
20340SOL    HW161198   6.746   8.165   4.863 -2.4518  0.5741  1.0818
20340SOL    HW261199   6.625   8.104   4.772 -2.8196 -0.9486  2.5164
20341SOL     OW61200   3.855   0.882   2.309  0.7392 -0.1211 -0.2768
20341SOL    HW161201   3.909   0.966   2.309  1.7079 -0.7268 -0.4200
20341SOL    HW261202   3.786   0.886   2.236  1.1086  0.3411 -0.6021
20342SOL     OW61203   7.113   8.003   0.822  0.0181 -0.3414  0.2803
20342SOL    HW161204   7.181   7.969   0.887  0.0457  1.2689  1.1579
20342SOL    HW261205   7.153   8.005   0.730  0.7880 -0.4273  0.6033
20343SOL     OW61206   8.228   5.329   3.163 -0.1114  0.2211  0.5265
20343SOL    HW161207   8.194   5.422   3.146  1.4952  0.8374  0.5208
20343SOL    HW261208   8.259   5.322   3.257  0.9605  0.0975  0.1783
20344SOL     OW61209   4.631   8.368   5.978  0.1081  0.1935 -0.0258
20344SOL    HW161210   4.564   8.302   6.011 -0.9776  0.6845 -1.1833
20344SOL    HW261211   4.708   8.371   6.041  0.2809 -2.2941 -0.0343
20345SOL     OW61212   6.891   6.972   3.272  0.4453 -0.3980  0.1282
20345SOL    HW161213   6.894   7.047   3.206 -0.1184  0.1332  0.6894
20345SOL    HW261214   6.947   6.896   3.239  2.8193  1.0668  0.5612
20346SOL     OW61215   8.799   2.125   8.057  0.1421  0.2211 -0.5919
20346SOL    HW161216   8.877   2.169   8.101  0.9867 -1.0057 -0.8171
20346SOL    HW261217   8.719   2.130   8.117  1.1312 -0.9867  0.9051
20347SOL     OW61218   5.556   0.380   7.918 -0.4840 -0.5400  0.0290
20347SOL    HW161219   5.634   0.437   7.893 -0.0844 -1.4032 -0.7593
20347SOL    HW261220   5.589   0.300   7.969 -0.6749 -1.5710 -1.4096
20348SOL     OW61221   7.189   2.662   2.880 -0.0947 -0.4422 -0.3598
20348SOL    HW161222   7.255   2.657   2.805 -1.6295  0.4750 -1.8429
20348SOL    HW261223   7.110   2.606   2.859 -0.1912 -0.8747  1.0189
20349SOL     OW61224   3.633   8.034   6.726  0.0175  0.3307  0.2909
20349SOL    HW161225   3.539   8.022   6.757  0.5954 -0.2385  1.9394
20349SOL    HW261226   3.690   7.960   6.762  1.2882  1.2034  0.1575
20350SOL     OW61227   6.418   3.826   3.916 -0.0184  0.3425 -0.2252
20350SOL    HW161228   6.357   3.746   3.921  0.4279 -0.0413 -0.7420
20350SOL    HW261229   6.378   3.902   3.967 -1.0463  0.1654 -0.7336
20351SOL     OW61230   5.548   7.802   0.789  0.1331  0.0102 -0.2567
20351SOL    HW161231   5.489   7.781   0.867 -1.4915  0.8394 -1.1911
20351SOL    HW261232   5.511   7.759   0.707  1.0814  0.2095 -0.8010
20352SOL     OW61233   6.939   8.117   1.201 -0.1597  0.4676 -0.3501
20352SOL    HW161234   6.882   8.072   1.270  1.9280 -0.8744  0.5720
20352SOL    HW261235   6.922   8.216   1.204 -2.1545  0.1584  0.0981
20353SOL     OW61236   7.202   3.165   6.800  0.0750 -0.1725  0.0546
20353SOL    HW161237   7.257   3.175   6.717  1.5563 -3.1079  0.5245
20353SOL    HW261238   7.252   3.204   6.878  0.2037 -0.3420  0.0574
20354SOL     OW61239   7.768   0.022   2.953  0.0557 -0.5552 -0.3479
20354SOL    HW161240   7.753  -0.077   2.965 -0.5153 -0.3438  0.9540
20354SOL    HW261241   7.684   0.071   2.977  0.8614  0.3364  0.7771
20355SOL     OW61242   1.801   7.710   4.777 -0.1743  0.2024 -0.0216
20355SOL    HW161243   1.742   7.637   4.742 -0.1822  0.2965 -0.2046
20355SOL    HW261244   1.784   7.722   4.875  0.4344 -0.6284  0.2018
20356SOL     OW61245   6.270   4.521   0.298  0.1900  0.3605 -0.3138
20356SOL    HW161246   6.207   4.486   0.367  0.2907  0.9877  0.1061
20356SOL    HW261247   6.259   4.470   0.213 -0.4517  0.0648 -0.0560
20357SOL     OW61248   3.955   8.836   0.419  0.3678 -0.4906 -0.2181
20357SOL    HW161249   3.889   8.910   0.415  0.9950  0.0219 -2.0762
20357SOL    HW261250   4.047   8.871   0.400  0.5506 -1.8198 -2.1854
20358SOL     OW61251   7.518   7.542   0.761  0.0627  0.2333 -0.1631
20358SOL    HW161252   7.428   7.550   0.720 -0.0693 -0.6895 -0.0574
20358SOL    HW261253   7.588   7.560   0.691 -0.1923  1.2306 -0.1791
20359SOL     OW61254   1.523   7.373   2.877  0.2457  0.3244 -0.3054
20359SOL    HW161255   1.494   7.440   2.946 -3.0539 -1.1243 -0.1010
20359SOL    HW261256   1.563   7.294   2.923 -0.8981 -0.1447 -0.0790
20360SOL     OW61257   4.812   2.432   2.624  0.2149  0.3880 -0.3536
20360SOL    HW161258   4.745   2.372   2.669 -0.1019 -0.0638 -1.4002
20360SOL    HW261259   4.772   2.471   2.541 -0.3843  3.8551  1.4011
20361SOL     OW61260   0.824   3.876   1.223 -0.0381 -0.3897  0.3004
20361SOL    HW161261   0.745   3.815   1.231 -0.5741  0.3281  0.6235
20361SOL    HW261262   0.842   3.918   1.312  0.5764 -0.3817  0.1759
20362SOL     OW61263   1.220   0.853   1.065  0.4923  0.2390  0.2180
20362SOL    HW161264   1.132   0.825   1.028 -0.6141  1.2047  1.9937
20362SOL    HW261265   1.253   0.784   1.128  1.1986 -0.2716 -0.6828
20363SOL     OW61266   6.735   1.513   5.979  0.1646  0.1443  0.6665
20363SOL    HW161267   6.761   1.430   5.929 -1.7857  0.1219 -0.4317
20363SOL    HW261268   6.676   1.488   6.056 -0.0091  0.4563  0.6379
20364SOL     OW61269   7.013   2.938   4.857 -0.0550 -0.3890  0.0734
20364SOL    HW161270   6.944   2.870   4.833 -0.2013 -0.7663  1.4454
20364SOL    HW261271   7.102   2.893   4.867  0.1402 -0.1214 -0.4361
20365SOL     OW61272   5.620   3.941   2.619 -0.2483  0.4736  0.4683
20365SOL    HW161273   5.554   3.918   2.547  0.8208 -1.0541 -0.0716
20365SOL    HW261274   5.648   4.037   2.610 -1.8470  0.9527  0.2940
20366SOL     OW61275   6.479   5.129   7.026 -0.0148  0.5425  0.8647
20366SOL    HW161276   6.564   5.175   7.052 -1.5980  2.5114  2.8562
20366SOL    HW261277   6.408   5.197   7.008 -0.8736 -0.9894 -2.2942
20367SOL     OW61278   6.983   7.493   5.982  0.1876 -0.2291  0.2512
20367SOL    HW161279   6.938   7.550   5.914  0.1600 -1.4687 -0.8264
20367SOL    HW261280   7.048   7.548   6.035  0.0693  0.8048 -0.6535
20368SOL     OW61281   2.501   3.796   8.303 -0.3036  0.2607 -0.2629
20368SOL    HW161282   2.565   3.866   8.274 -0.0740  0.0739 -0.2094
20368SOL    HW261283   2.408   3.824   8.281 -0.1558  0.2572 -0.8903
20369SOL     OW61284   0.198   8.519   2.314 -0.3685 -0.4385  0.5135
20369SOL    HW161285   0.149   8.531   2.228  0.0591 -2.1919 -0.0102
20369SOL    HW261286   0.194   8.423   2.342  2.7119 -0.6842  0.4612
20370SOL     OW61287   8.637   5.416   7.014 -0.6073  0.0017  0.5362
20370SOL    HW161288   8.585   5.464   6.943  0.4454 -0.9795 -0.9816
20370SOL    HW261289   8.580   5.346   7.056 -1.1490  0.3611  0.4077
20371SOL     OW61290   4.486   3.951   6.381  0.1849 -0.5910  0.0679
20371SOL    HW161291   4.586   3.950   6.385  0.2196  1.5750  2.8896
20371SOL    HW261292   4.455   4.018   6.313  0.5824 -1.6093 -1.1598
20372SOL     OW61293   1.592   7.205   8.046 -0.3234  0.4039  0.0025
20372SOL    HW161294   1.637   7.165   8.126  0.0047 -1.9832 -1.2617
20372SOL    HW261295   1.653   7.273   8.005  0.2482  0.3970  0.8038
20373SOL     OW61296   2.890   3.250   2.706  0.4693  0.1517  1.0470
20373SOL    HW161297   2.884   3.257   2.805  1.5651  1.6514  1.0564
20373SOL    HW261298   2.864   3.337   2.665  0.4092 -0.3267  0.0341
20374SOL     OW61299   1.543   3.850   6.816  0.3467  0.1526 -0.6274
20374SOL    HW161300   1.484   3.844   6.736 -0.4035 -1.2363 -0.0134
20374SOL    HW261301   1.638   3.834   6.790  0.1756  0.2586 -1.3153
20375SOL     OW61302   2.415   3.436   3.586  0.5419  0.0601 -0.2704
20375SOL    HW161303   2.452   3.499   3.654  0.0533  0.3726 -0.2929
20375SOL    HW261304   2.325   3.403   3.616  0.3082  0.2271 -0.7800
20376SOL     OW61305   1.810   1.103   8.243 -0.1588  0.0259 -0.4247
20376SOL    HW161306   1.835   1.038   8.171  0.2046 -2.6515  1.9263
20376SOL    HW261307   1.874   1.095   8.319 -1.3747  1.6653  0.8564
20377SOL     OW61308   3.696   3.365   2.319 -0.0430  0.0873  0.2182
20377SOL    HW161309   3.614   3.400   2.365  0.0578  0.2327  0.2882
20377SOL    HW261310   3.745   3.304   2.381 -1.8597 -2.7270 -0.9164
20378SOL     OW61311   0.189   6.602   5.147  0.0349 -0.0989  0.1967
20378SOL    HW161312   0.097   6.611   5.108 -0.3005 -0.3653  0.8989
20378SOL    HW261313   0.245   6.679   5.117 -0.9825  1.1038  1.2418
20379SOL     OW61314   1.806   6.815   8.462  0.3992  0.5612 -0.0985
20379SOL    HW161315   1.786   6.740   8.398 -0.2436  1.5126 -1.0416
20379SOL    HW261316   1.765   6.795   8.550 -1.3414  0.5998 -0.8520
20380SOL     OW61317   6.891   0.639   5.441 -0.0740 -0.6864 -0.0875
20380SOL    HW161318   6.903   0.735   5.464  0.2367 -0.5218 -0.8795
20380SOL    HW261319   6.955   0.614   5.368  0.1275 -1.5970  0.3774
20381SOL     OW61320   5.519   1.296   1.780  0.2163 -0.2563  0.2656
20381SOL    HW161321   5.543   1.357   1.705  0.2836  0.3835  0.7977
20381SOL    HW261322   5.473   1.215   1.744  1.7132 -0.7424 -0.6255
20382SOL     OW61323   3.171   2.773   5.846  0.1126  0.4306  0.5337
20382SOL    HW161324   3.166   2.873   5.858 -1.7670  0.3073  1.0812
20382SOL    HW261325   3.081   2.733   5.861  1.1835 -1.5810  2.1463
20383SOL     OW61326   3.648   3.802   8.800 -0.3297  0.2368  0.0883
20383SOL    HW161327   3.575   3.765   8.743 -0.5930  1.7335 -0.6163
20383SOL    HW261328   3.710   3.729   8.828 -0.9968 -0.7488 -0.9360
20384SOL     OW61329   2.022   6.779   1.463 -0.2745 -0.2929 -0.0486
20384SOL    HW161330   1.993   6.731   1.546 -1.7582  0.3916 -0.1358
20384SOL    HW261331   2.078   6.858   1.488 -2.3138  1.0689  0.5105
20385SOL     OW61332   1.796   4.104   4.415  0.4019  0.0647  0.0117
20385SOL    HW161333   1.741   4.187   4.401  0.5803  0.3927  1.1705
20385SOL    HW261334   1.874   4.104   4.352 -0.4973 -0.0494 -1.1483
20386SOL     OW61335   4.864   4.110   8.849  0.0558 -0.3485  0.0667
20386SOL    HW161336   4.954   4.103   8.891 -0.2439 -1.3986  0.5675
20386SOL    HW261337   4.804   4.038   8.886 -1.1026  0.5767  0.0361
20387SOL     OW61338   0.268   5.670   6.041  0.1027 -0.0281 -0.5155
20387SOL    HW161339   0.320   5.632   6.117  0.8161  0.7558 -0.6047
20387SOL    HW261340   0.322   5.739   5.994 -0.5712 -0.0487 -1.3523
20388SOL     OW61341   4.958   0.634   2.648 -0.4438 -0.4408 -0.2553
20388SOL    HW161342   5.026   0.681   2.592 -0.3362 -1.2969 -0.8639
20388SOL    HW261343   4.894   0.585   2.588 -1.9447  0.7940  0.2653
20389SOL     OW61344   6.767   2.371   0.356 -0.6802 -0.2540 -0.2576
20389SOL    HW161345   6.735   2.453   0.404  1.8966  1.0590 -0.5655
20389SOL    HW261346   6.841   2.328   0.409 -0.7684 -1.3316 -0.9756
20390SOL     OW61347   6.691   4.210   3.409 -0.4331 -0.4856 -0.2241
20390SOL    HW161348   6.729   4.302   3.411 -0.1227 -0.6259  0.7718
20390SOL    HW261349   6.690   4.172   3.501 -1.3890 -1.1443 -0.4833
20391SOL     OW61350   1.047   7.245   2.578  0.3944 -0.6636 -0.6027
20391SOL    HW161351   1.097   7.192   2.646  2.3699  0.0814 -1.3927
20391SOL    HW261352   1.031   7.190   2.496  1.7969 -0.3195 -1.1391
20392SOL     OW61353   8.678   8.260   2.893 -0.5246  0.7061  0.7935
20392SOL    HW161354   8.625   8.184   2.931 -1.3773  0.9661  0.1718
20392SOL    HW261355   8.677   8.254   2.793 -1.1199  1.8666  0.7184
20393SOL     OW61356   4.659   0.550   4.843  0.1773  0.4365 -0.2023
20393SOL    HW161357   4.735   0.614   4.838  0.3479  0.2031 -0.7615
20393SOL    HW261358   4.694   0.457   4.856 -0.0905  0.5050  1.1101
20394SOL     OW61359   7.135   2.349   2.167  0.0373 -0.2582  0.4711
20394SOL    HW161360   7.095   2.265   2.130  0.0740  0.1659 -0.5689
20394SOL    HW261361   7.229   2.330   2.198  0.3221 -0.4440 -0.4688
20395SOL     OW61362   5.458   4.866   2.661 -0.1590 -0.0755  0.9961
20395SOL    HW161363   5.360   4.887   2.663 -0.5451 -1.4361 -1.0720
20395SOL    HW261364   5.471   4.767   2.666  1.1460  0.0972  1.4552
20396SOL     OW61365   4.031   6.138   4.394 -0.6572  0.5135 -0.4376
20396SOL    HW161366   4.121   6.176   4.371 -0.8956  0.6343 -1.2020
20396SOL    HW261367   3.959   6.201   4.365 -0.9885  0.6206  0.5738
20397SOL     OW61368   4.780   1.279   7.648 -0.0433  0.0981 -0.1843
20397SOL    HW161369   4.773   1.229   7.734  1.2321  0.1960 -0.0078
20397SOL    HW261370   4.871   1.266   7.609 -0.9274 -0.8296 -2.0782
20398SOL     OW61371   1.195   7.171   7.799  0.3596 -0.2170 -0.2400
20398SOL    HW161372   1.160   7.079   7.818 -1.2017  0.2331 -0.8488
20398SOL    HW261373   1.241   7.206   7.881 -0.2029 -1.0111  0.4361
20399SOL     OW61374   1.995   5.319   2.455 -0.7333 -0.5776 -0.3245
20399SOL    HW161375   1.912   5.374   2.450 -1.0921 -1.0231  0.5795
20399SOL    HW261376   2.054   5.340   2.376 -1.2281  0.4921 -0.4236
20400SOL     OW61377   4.233   8.150   8.192  0.1586 -0.2568  0.5820
20400SOL    HW161378   4.191   8.174   8.105  0.3569 -2.1482 -0.0820
20400SOL    HW261379   4.174   8.084   8.240 -0.1222  1.0128  2.0794
20401SOL     OW61380   3.875   4.085   3.820  0.1620  0.0955 -0.3577
20401SOL    HW161381   3.877   4.074   3.721 -0.4904 -0.2183 -0.3344
20401SOL    HW261382   3.824   4.010   3.862 -0.0478  0.5283  0.1736
20402SOL     OW61383   0.235   1.351   8.634  0.4089 -0.4143 -0.6765
20402SOL    HW161384   0.192   1.437   8.607 -0.5714 -1.2030 -1.7237
20402SOL    HW261385   0.328   1.369   8.667 -0.0558  1.1163 -0.1242
20403SOL     OW61386   7.350   1.365   1.367  0.1788  0.0047 -0.2939
20403SOL    HW161387   7.359   1.457   1.328  0.3423  0.7619  1.4510
20403SOL    HW261388   7.324   1.372   1.463 -2.6211 -1.8327 -0.8038
20404SOL     OW61389   5.129   6.592   4.625 -0.2666 -0.1950  0.1371
20404SOL    HW161390   5.106   6.652   4.702 -1.0046  0.5674 -0.6447
20404SOL    HW261391   5.100   6.499   4.645  0.8254 -0.3013  1.3491
20405SOL     OW61392   8.396   8.638   7.557  0.0425 -0.2977  0.3466
20405SOL    HW161393   8.316   8.577   7.559  0.7373 -1.2204  0.8637
20405SOL    HW261394   8.408   8.673   7.464 -0.3821 -0.9485  0.0323
20406SOL     OW61395   3.811   1.872   6.884 -0.2791 -0.0526 -0.1485
20406SOL    HW161396   3.877   1.860   6.958  1.6228 -0.3536 -1.7982
20406SOL    HW261397   3.747   1.795   6.883  1.2407 -1.3599 -0.3094
20407SOL     OW61398   2.047   5.154   7.573  0.0911 -0.0023  0.7020
20407SOL    HW161399   2.028   5.056   7.577 -1.0019  0.1529 -0.1601
20407SOL    HW261400   2.021   5.196   7.660  1.2125 -0.5687  1.3277
20408SOL     OW61401   1.514   3.573   0.929 -0.2334  0.4153 -0.2927
20408SOL    HW161402   1.415   3.559   0.916 -0.2123  0.3558 -0.3886
20408SOL    HW261403   1.558   3.486   0.947 -0.6789  0.7783  3.1031
20409SOL     OW61404   3.989   1.074   2.931  0.1540  0.0575 -0.3621
20409SOL    HW161405   3.995   0.974   2.925  1.6039  0.1611 -0.9367
20409SOL    HW261406   3.970   1.112   2.841 -0.0641  0.3203 -0.2073
20410SOL     OW61407   1.059   6.933   0.967  0.0086 -0.5590 -0.3565
20410SOL    HW161408   0.997   6.921   1.044  1.3053 -1.4195  0.5885
20410SOL    HW261409   1.010   6.977   0.891 -1.7489 -1.2672  0.3281
20411SOL     OW61410   8.747   4.129   1.389 -0.2971  0.5937 -0.0328
20411SOL    HW161411   8.663   4.135   1.442  0.1639 -0.5397  0.8562
20411SOL    HW261412   8.727   4.093   1.298 -0.7812  0.3758  0.1595
20412SOL     OW61413   8.467   4.503   0.569 -0.1529 -0.8448 -0.4267
20412SOL    HW161414   8.452   4.473   0.474  0.3290 -0.8868 -0.4955
20412SOL    HW261415   8.543   4.568   0.571  1.9327 -3.1209  0.2691
20413SOL     OW61416   2.697   6.225   0.701  0.0173 -0.0589  0.1599
20413SOL    HW161417   2.634   6.149   0.687  0.6386 -0.7949  1.1837
20413SOL    HW261418   2.646   6.308   0.723 -0.6832 -0.0798 -1.3237
20414SOL     OW61419   5.475   3.389   1.641 -0.2728 -0.2685  0.3166
20414SOL    HW161420   5.406   3.378   1.711 -0.1242 -0.3032  0.4580
20414SOL    HW261421   5.480   3.486   1.615 -1.0764 -0.4142 -0.4172
20415SOL     OW61422   6.022   0.432   4.129  0.3414  0.3369 -0.3712
20415SOL    HW161423   5.963   0.352   4.119 -1.5186  1.9105 -2.9746
20415SOL    HW261424   6.087   0.436   4.053 -0.3835  1.8737 -0.9496
20416SOL     OW61425   4.936   3.874   1.578  0.5118  0.3304  0.2939
20416SOL    HW161426   5.000   3.809   1.537 -0.8274 -0.4955 -0.5564
20416SOL    HW261427   4.865   3.897   1.512 -0.5970  0.5083  1.5106
20417SOL     OW61428   1.814   5.021   3.874  0.0320  0.8279  0.0344
20417SOL    HW161429   1.826   4.932   3.831 -1.4632 -0.7218  2.5890
20417SOL    HW261430   1.717   5.044   3.879  0.3726  2.5349 -0.3409
20418SOL     OW61431   6.523   4.154   2.744 -0.8915  0.8339  0.8693
20418SOL    HW161432   6.612   4.108   2.753 -1.7486 -1.1197 -0.0490
20418SOL    HW261433   6.529   4.245   2.784  1.7254  1.0458  0.1942
20419SOL     OW61434   3.220   8.748   8.569  0.4935 -0.3501 -0.2124
20419SOL    HW161435   3.193   8.677   8.505 -0.3066 -0.0577 -0.2117
20419SOL    HW261436   3.273   8.708   8.643 -0.3616 -1.0258  0.0478
20420SOL     OW61437   1.983   1.865   2.861 -0.7983 -0.6509  0.5469
20420SOL    HW161438   1.887   1.893   2.863 -0.7658 -0.4748  3.8206
20420SOL    HW261439   1.989   1.767   2.840 -1.9176 -1.2010  2.5554
20421SOL     OW61440   7.769   3.655   1.504 -0.1491  0.1160  0.3170
20421SOL    HW161441   7.707   3.611   1.569 -0.7078  2.4372  1.4770
20421SOL    HW261442   7.770   3.754   1.521  1.9383  0.4525 -1.3512
20422SOL     OW61443   0.492   3.379   1.548  0.2046  0.7885 -0.0562
20422SOL    HW161444   0.454   3.373   1.456  0.4824  0.6557 -0.1637
20422SOL    HW261445   0.576   3.325   1.553  1.2196  2.3138 -0.2316
20423SOL     OW61446   1.994   2.067   0.702  0.2019 -0.0639 -0.3973
20423SOL    HW161447   2.051   2.049   0.782 -0.2187  0.0901 -0.0602
20423SOL    HW261448   2.049   2.110   0.630  0.6968 -0.6566 -0.3800
20424SOL     OW61449   2.012   4.065   3.610 -0.1850  0.7325  0.6630
20424SOL    HW161450   2.078   4.017   3.552 -0.4674 -0.7848  1.5306
20424SOL    HW261451   2.056   4.092   3.695 -0.3087  1.0506  0.6277
20425SOL     OW61452   7.793   0.306   6.641 -0.2282 -0.3080  0.3208
20425SOL    HW161453   7.844   0.245   6.580 -0.9037 -0.9391  0.3764
20425SOL    HW261454   7.780   0.262   6.730 -0.4954  0.0260  0.4511
20426SOL     OW61455   3.540   0.835   7.273 -0.3476 -0.8083  0.0460
20426SOL    HW161456   3.512   0.852   7.367 -2.3231 -0.8707 -0.4895
20426SOL    HW261457   3.470   0.781   7.226  0.5198 -0.6432 -1.5116
20427SOL     OW61458   4.644   4.296   7.645 -0.4346  0.5143 -0.1316
20427SOL    HW161459   4.579   4.220   7.645  1.0997 -0.8304 -0.0085
20427SOL    HW261460   4.673   4.316   7.551 -0.3309  0.5094 -0.1005
20428SOL     OW61461   6.845   2.336   3.165 -0.4943  0.2015  0.3501
20428SOL    HW161462   6.780   2.265   3.193  0.2529 -0.9254 -0.6626
20428SOL    HW261463   6.935   2.314   3.203 -0.5323  1.3609  1.1512
20429SOL     OW61464   2.134   8.627   6.732  0.1288 -0.1203  0.5673
20429SOL    HW161465   2.085   8.546   6.765  1.4786 -1.5169 -0.7222
20429SOL    HW261466   2.099   8.652   6.642  0.7459 -0.1920  0.3068
20430SOL     OW61467   8.504   5.515   0.851 -0.0255 -0.0200 -0.0593
20430SOL    HW161468   8.564   5.529   0.772 -0.6644  4.5447 -0.0179
20430SOL    HW261469   8.560   5.494   0.931  1.2210  0.6896 -0.7046
20431SOL     OW61470   5.091   0.943   1.591 -0.2635  0.1006  0.4335
20431SOL    HW161471   5.017   1.007   1.571 -0.2116 -0.6609 -2.6022
20431SOL    HW261472   5.174   0.994   1.614 -0.5933  1.1067 -0.5325
20432SOL     OW61473   3.951   6.075   4.063  0.1499 -0.5799 -0.3701
20432SOL    HW161474   3.873   6.070   4.000  0.4716  0.5139 -0.8797
20432SOL    HW261475   3.951   5.994   4.122  0.0761 -1.8779 -2.0551
20433SOL     OW61476   3.094   8.144   6.846  0.3818 -0.2909 -0.4595
20433SOL    HW161477   3.044   8.223   6.812 -0.5093 -0.9508 -0.7555
20433SOL    HW261478   3.034   8.063   6.842  1.4922 -1.1164 -0.8318
20434SOL     OW61479   6.941   5.178   7.533 -0.3652  0.0655  0.1181
20434SOL    HW161480   6.920   5.083   7.554 -1.8726  0.3673  0.0893
20434SOL    HW261481   6.956   5.229   7.619 -1.2709  0.1572  0.2333
20435SOL     OW61482   8.422   1.065   6.021 -0.0903  0.5487 -0.0897
20435SOL    HW161483   8.364   1.131   6.068  0.3524 -0.0695  1.3886
20435SOL    HW261484   8.512   1.063   6.064  0.2778 -0.1756 -0.8596
20436SOL     OW61485   0.435   3.968   4.668  0.3710  0.1831  0.2422
20436SOL    HW161486   0.462   4.045   4.611 -1.7015  0.9460  0.2144
20436SOL    HW261487   0.491   3.966   4.751  1.6023  0.6631 -0.5536
20437SOL     OW61488   3.919   0.010   2.983 -0.3649 -0.3994  0.2271
20437SOL    HW161489   3.935   0.070   2.905 -0.3790 -1.1874 -0.3892
20437SOL    HW261490   3.862   0.058   3.050  1.4985  1.1120  0.8181
20438SOL     OW61491   6.959   2.479   5.597  0.5399  0.3047  0.2794
20438SOL    HW161492   7.003   2.441   5.678  0.6844  0.6888  0.3836
20438SOL    HW261493   7.014   2.461   5.516  1.1149  1.1615  0.4687
20439SOL     OW61494   7.179   3.264   3.371 -0.0661  0.0775 -0.2712
20439SOL    HW161495   7.218   3.172   3.361  0.7879  0.2789  1.0475
20439SOL    HW261496   7.151   3.298   3.281  2.8981 -0.0589 -1.3623
20440SOL     OW61497   0.961   7.573   2.283 -0.1855  0.7695  0.1775
20440SOL    HW161498   1.035   7.640   2.272  0.5071  0.0692  0.4496
20440SOL    HW261499   0.935   7.538   2.194 -0.1154  0.9403  0.0889
20441SOL     OW61500   7.251   1.163   5.750 -0.2321 -0.3344 -0.3418
20441SOL    HW161501   7.350   1.152   5.746 -0.2195 -0.4228  0.1255
20441SOL    HW261502   7.222   1.235   5.687  0.2773  0.6188  0.4818
20442SOL     OW61503   3.892   6.611   2.907 -0.3569 -0.0158 -0.1753
20442SOL    HW161504   3.939   6.675   2.846  0.5840 -0.8881 -0.4029
20442SOL    HW261505   3.795   6.634   2.912  0.0863  1.9319  0.4003
20443SOL     OW61506   6.186   3.614   6.375 -0.2918 -0.1732 -0.2428
20443SOL    HW161507   6.193   3.696   6.318 -1.5721 -0.1040 -0.3338
20443SOL    HW261508   6.205   3.638   6.470  1.5605 -0.2320 -0.5671
20444SOL     OW61509   8.080   7.139   2.092 -0.1818  0.0800 -0.8144
20444SOL    HW161510   8.067   7.068   2.023  0.4484 -1.0295  0.1719
20444SOL    HW261511   8.021   7.119   2.171  0.3229  0.3920 -0.3498
20445SOL     OW61512   8.491   8.811   5.411 -0.4096 -0.0250 -0.6859
20445SOL    HW161513   8.497   8.716   5.443  3.1721  0.8335  1.7816
20445SOL    HW261514   8.480   8.872   5.489 -3.0357  1.6877 -2.2667
20446SOL     OW61515   8.101   5.600   3.004 -0.1323  0.0184  0.0270
20446SOL    HW161516   8.027   5.599   3.072  0.3886 -0.5443  0.6018
20446SOL    HW261517   8.182   5.644   3.044 -0.5010  1.6914 -0.9917
20447SOL     OW61518   2.085   5.161   6.730 -0.2229  0.3407 -0.0382
20447SOL    HW161519   2.088   5.102   6.810  2.1105  0.3648 -0.0300
20447SOL    HW261520   2.054   5.108   6.651  1.8073 -0.9475 -0.0278
20448SOL     OW61521   0.403   0.043   7.632 -0.0125  0.1108  0.0389
20448SOL    HW161522   0.336  -0.030   7.644  0.4672 -0.3749 -0.2227
20448SOL    HW261523   0.393   0.083   7.541  0.1407 -0.0465 -0.0460
20449SOL     OW61524   3.024   3.064   8.754  0.0256  0.3443 -0.3785
20449SOL    HW161525   3.028   3.146   8.697 -0.1339  0.5969 -0.0338
20449SOL    HW261526   3.074   3.081   8.840  2.3704 -0.8324 -1.4070
20450SOL     OW61527   8.816   2.161   5.528  0.1103  0.8063  0.5683
20450SOL    HW161528   8.716   2.160   5.535  0.2284 -0.4406  2.6704
20450SOL    HW261529   8.854   2.219   5.600  0.9474  0.6463  0.2688
20451SOL     OW61530   7.586   4.713   2.628  0.2684 -0.4544  0.0928
20451SOL    HW161531   7.493   4.678   2.614 -0.1746  1.3797 -2.0079
20451SOL    HW261532   7.597   4.740   2.724 -1.4800 -0.3756  0.3125
20452SOL     OW61533   0.161   2.098   0.085  0.2192  0.1381 -0.2337
20452SOL    HW161534   0.228   2.092   0.159  2.2817  2.3680 -1.7415
20452SOL    HW261535   0.208   2.124   0.000 -2.2234 -1.0370 -2.0659
20453SOL     OW61536   6.037   7.065   1.723 -0.2979  0.3439  0.3016
20453SOL    HW161537   6.033   7.012   1.808  0.3314  0.9411  0.7114
20453SOL    HW261538   6.072   7.156   1.742  1.0221  0.0966 -0.7985
20454SOL     OW61539   0.653   2.247   5.015  0.1893 -0.3717  0.4984
20454SOL    HW161540   0.737   2.292   4.984 -0.4559  0.0678 -0.6473
20454SOL    HW261541   0.593   2.231   4.937 -1.3014  0.3712  1.4541
20455SOL     OW61542   7.275   8.410   5.924 -0.0062 -0.2619 -0.1296
20455SOL    HW161543   7.187   8.395   5.968  0.0093  0.1052  0.0267
20455SOL    HW261544   7.280   8.355   5.841 -0.7791  0.4708 -0.6773
20456SOL     OW61545   3.684   0.881   6.787 -0.1617 -0.1343 -0.1716
20456SOL    HW161546   3.743   0.918   6.858 -1.7860 -0.7627  1.5774
20456SOL    HW261547   3.626   0.954   6.749  0.2265  0.0642 -0.3934
20457SOL     OW61548   3.473   7.924   2.380 -0.0477  0.0433  0.1982
20457SOL    HW161549   3.469   8.024   2.384  0.5289  0.1050 -0.5765
20457SOL    HW261550   3.483   7.887   2.473 -0.6247  0.6780  0.5228
20458SOL     OW61551   2.130   4.272   0.993  0.3857 -0.9700 -0.0654
20458SOL    HW161552   2.167   4.255   1.084 -0.7658 -2.1683  0.2130
20458SOL    HW261553   2.197   4.242   0.924  0.3577 -2.2187  0.4170
20459SOL     OW61554   4.770   4.302   0.223 -0.1852 -0.1881  0.3382
20459SOL    HW161555   4.758   4.220   0.279  0.6411 -0.6310 -0.1011
20459SOL    HW261556   4.728   4.288   0.134 -1.0962  0.3383  0.6783
20460SOL     OW61557   0.478   3.381   6.691 -0.0982 -0.8000 -0.2324
20460SOL    HW161558   0.572   3.388   6.657 -0.1919  0.8792 -0.2072
20460SOL    HW261559   0.475   3.313   6.764  1.4123  0.0865  0.7270
20461SOL     OW61560   8.521   0.455   1.805 -0.0388 -0.5937 -0.8138
20461SOL    HW161561   8.432   0.487   1.837 -0.5579 -2.5571 -0.1564
20461SOL    HW261562   8.510   0.367   1.760  1.4978 -0.5364 -1.3583
20462SOL     OW61563   3.785   1.960   2.421  0.3623  0.2293  0.2939
20462SOL    HW161564   3.790   1.884   2.486  0.4610  0.8699  1.0611
20462SOL    HW261565   3.871   1.968   2.372 -0.4057 -1.5960 -1.5205
20463SOL     OW61566   7.246   0.932   4.799  0.6861  0.4836 -0.5935
20463SOL    HW161567   7.194   1.013   4.770  0.4966  0.6453  0.1732
20463SOL    HW261568   7.243   0.863   4.727 -0.4189  0.5713 -0.6497
20464SOL     OW61569   1.581   1.749   8.457  0.1169 -0.4375  0.1955
20464SOL    HW161570   1.550   1.661   8.422 -0.9334 -0.7031  1.6660
20464SOL    HW261571   1.501   1.803   8.486  0.8759 -0.0927  1.7398
20465SOL     OW61572   7.720   8.542   0.105  0.1165 -1.2032 -0.0513
20465SOL    HW161573   7.784   8.619   0.105  0.6977 -1.6702 -0.8523
20465SOL    HW261574   7.663   8.546   0.023 -2.3703  0.3709  1.6241
20466SOL     OW61575   8.124   1.446   8.657  0.2080  0.3016  0.4299
20466SOL    HW161576   8.180   1.459   8.739 -0.0242 -0.8705  0.7984
20466SOL    HW261577   8.184   1.429   8.578  0.4024 -0.2912  0.6973
20467SOL     OW61578   4.995   5.130   7.703  0.2780  0.0373 -0.0673
20467SOL    HW161579   5.094   5.123   7.705  0.2756  0.0832  0.3088
20467SOL    HW261580   4.956   5.087   7.785 -0.0476 -0.4977 -0.4923
20468SOL     OW61581   2.922   0.489   2.760  0.6922  0.3435  0.0402
20468SOL    HW161582   2.972   0.507   2.845 -1.6222  2.7665  1.0194
20468SOL    HW261583   2.881   0.574   2.726  0.7339 -0.7265 -3.0406
20469SOL     OW61584   5.689   5.093   4.550 -0.1488  0.3375  0.0923
20469SOL    HW161585   5.708   5.097   4.649 -2.2731  0.1352  0.5561
20469SOL    HW261586   5.762   5.043   4.504  1.5876  1.5958  1.3430
20470SOL     OW61587   4.430   4.266   2.408  0.6822 -0.1245 -0.6278
20470SOL    HW161588   4.462   4.196   2.471  1.3282  1.4018  0.8144
20470SOL    HW261589   4.506   4.326   2.383 -0.1585  0.9922 -0.5779
20471SOL     OW61590   0.870   6.980   2.338 -0.3909  0.2835 -0.7627
20471SOL    HW161591   0.900   6.921   2.264 -0.4566  0.0489 -0.6048
20471SOL    HW261592   0.884   7.076   2.313 -0.2058  0.1978 -0.9862
20472SOL     OW61593   3.418   3.216   7.708 -0.2713  0.5510  0.2054
20472SOL    HW161594   3.484   3.198   7.635 -1.4741  1.0155 -1.0567
20472SOL    HW261595   3.460   3.197   7.797  2.3814  3.0972 -0.3439
20473SOL     OW61596   4.442   0.591   7.675 -0.3751  0.0878 -0.3362
20473SOL    HW161597   4.521   0.628   7.724  1.0021 -0.7629 -1.8221
20473SOL    HW261598   4.392   0.529   7.735  1.5134 -1.2786 -0.0751
20474SOL     OW61599   8.607   3.185   6.332  0.1461  0.8014  0.3521
20474SOL    HW161600   8.625   3.131   6.250 -1.1427 -0.7983  1.0455
20474SOL    HW261601   8.657   3.271   6.328  0.0760  0.7965 -2.1184
20475SOL     OW61602   3.150   6.287   2.049 -0.0463 -0.7874  0.2201
20475SOL    HW161603   3.152   6.207   2.107 -1.5895 -1.7530 -0.9723
20475SOL    HW261604   3.207   6.271   1.968  2.3333  0.6584  1.4941
20476SOL     OW61605   3.862   1.239   3.728 -0.5938 -0.1490 -0.5926
20476SOL    HW161606   3.847   1.238   3.827  1.7333 -1.6201 -0.1842
20476SOL    HW261607   3.831   1.152   3.690  0.6020 -0.5175 -0.7584
20477SOL     OW61608   7.012   2.204   7.484  0.7512  0.6633  0.0630
20477SOL    HW161609   7.064   2.120   7.470  1.1068  0.6975  1.0798
20477SOL    HW261610   7.051   2.278   7.428  1.0850  0.4073 -0.0433
20478SOL     OW61611   4.337   4.848   1.209  0.2436  0.6721 -0.2529
20478SOL    HW161612   4.286   4.813   1.287  0.1581  1.5061  0.0755
20478SOL    HW261613   4.405   4.914   1.240  0.0703  1.1691 -0.8979
20479SOL     OW61614   3.983   8.440   2.181 -0.1757 -0.0884 -0.3753
20479SOL    HW161615   4.012   8.498   2.105 -1.6027 -0.2066 -1.0432
20479SOL    HW261616   3.898   8.393   2.156 -0.8272  0.0892  1.3968
20480SOL     OW61617   8.575   3.760   6.232  0.1862 -0.0934  0.5786
20480SOL    HW161618   8.672   3.758   6.258 -0.3146 -1.0457  2.5487
20480SOL    HW261619   8.537   3.851   6.249  0.4635 -0.0241  0.8235
20481SOL     OW61620   1.522   5.155   7.835 -0.1588 -0.5578  0.1644
20481SOL    HW161621   1.544   5.212   7.756 -1.6585 -1.0375 -0.6327
20481SOL    HW261622   1.428   5.172   7.865  0.1603 -0.8823  1.4285
20482SOL     OW61623   5.848   5.220   5.040  0.1987 -0.2630 -1.0684
20482SOL    HW161624   5.887   5.310   5.054  0.0437 -0.3286 -0.2053
20482SOL    HW261625   5.891   5.154   5.101 -3.0593  0.1571  1.9965
20483SOL     OW61626   1.063   8.813   6.213 -0.1072 -0.2973  0.5749
20483SOL    HW161627   1.141   8.792   6.153  0.2951 -1.4759  1.4665
20483SOL    HW261628   0.987   8.753   6.190  0.0896 -0.8395  1.2976
20484SOL     OW61629   7.339   1.130   2.950 -0.4592  0.2800 -0.1184
20484SOL    HW161630   7.360   1.118   2.853 -1.5714 -0.1874 -0.3190
20484SOL    HW261631   7.329   1.041   2.994  0.0961  0.4914  0.4382
20485SOL     OW61632   7.890   5.364   7.437  0.0901 -0.0165 -0.6432
20485SOL    HW161633   7.903   5.367   7.536 -0.3647  0.6401 -0.5971
20485SOL    HW261634   7.796   5.391   7.415  0.3037  0.2230 -1.2804
20486SOL     OW61635   5.621   0.367   8.715 -0.2462  0.2693 -0.1079
20486SOL    HW161636   5.645   0.451   8.665 -0.6211  0.2027 -0.3994
20486SOL    HW261637   5.661   0.288   8.669  1.5028  0.4020  1.0510
20487SOL     OW61638   0.510   1.642   2.497 -0.0006  0.5612 -0.0193
20487SOL    HW161639   0.465   1.670   2.412  1.4849  0.7757 -0.7759
20487SOL    HW261640   0.553   1.721   2.540 -1.5100  0.6313  1.4636
20488SOL     OW61641   1.953   5.090   6.983 -0.2350  0.3320  0.1549
20488SOL    HW161642   1.875   5.116   7.039 -0.1255 -1.7717  1.4012
20488SOL    HW261643   2.032   5.146   7.006 -0.9055  1.3024  0.1304
20489SOL     OW61644   5.390   3.940   0.513 -0.0706  0.6435  0.0540
20489SOL    HW161645   5.430   3.917   0.602  1.3949 -0.9291 -0.9340
20489SOL    HW261646   5.464   3.964   0.450 -1.1986  3.3647 -0.3570
20490SOL     OW61647   6.952   6.425   0.033  0.0309  0.6436 -0.2629
20490SOL    HW161648   6.897   6.349   0.068 -0.5890  0.4675 -1.5580
20490SOL    HW261649   7.044   6.421   0.072 -0.3191 -0.1301  0.5153
20491SOL     OW61650   0.352   5.707   0.493  0.0839 -0.4410 -0.0182
20491SOL    HW161651   0.284   5.656   0.439  1.7119 -2.4509 -0.3068
20491SOL    HW261652   0.437   5.715   0.441  0.5128  0.9191  0.8233
20492SOL     OW61653   0.447   8.784   1.996  0.0058 -0.2402  0.0778
20492SOL    HW161654   0.465   8.727   1.916  1.9582  0.0313  0.2652
20492SOL    HW261655   0.436   8.725   2.076  0.0545 -0.4372 -0.0600
20493SOL     OW61656   4.439   1.283   1.980 -0.0809 -0.5968  0.3760
20493SOL    HW161657   4.362   1.255   2.037 -1.3202 -0.7393 -1.2986
20493SOL    HW261658   4.522   1.238   2.012 -1.0683 -2.0956  0.9511
20494SOL     OW61659   2.924   4.549   5.559  0.3962  0.0607 -0.0414
20494SOL    HW161660   2.961   4.603   5.635  0.7135 -0.1417 -0.0473
20494SOL    HW261661   2.859   4.604   5.507 -0.3353 -0.0070  0.7687
20495SOL     OW61662   7.939   1.509   0.813  0.8881  0.1987  0.1853
20495SOL    HW161663   7.907   1.547   0.899  1.7928  0.5409  0.3896
20495SOL    HW261664   7.896   1.421   0.796  1.4273 -0.3389  1.4814
20496SOL     OW61665   0.728   8.690   4.607  0.2406 -0.8418 -0.5324
20496SOL    HW161666   0.815   8.644   4.585  0.4105 -0.9146  0.2776
20496SOL    HW261667   0.697   8.662   4.697 -0.0177  0.0990 -0.3200
20497SOL     OW61668   4.894   7.455   6.686  0.2047  0.1475 -0.1661
20497SOL    HW161669   4.890   7.457   6.586 -0.0897  0.9426 -0.1446
20497SOL    HW261670   4.883   7.361   6.718 -2.6604  0.1757 -0.7929
20498SOL     OW61671   6.722   5.907   6.013 -0.3607  0.0587  0.2094
20498SOL    HW161672   6.814   5.891   5.977 -0.2640 -0.4728  0.6832
20498SOL    HW261673   6.676   5.819   6.025  0.1875  0.0613  2.8938
20499SOL     OW61674   1.759   4.166   5.277 -0.7013  0.1078  0.4428
20499SOL    HW161675   1.849   4.197   5.247 -0.8437 -0.0159 -0.1168
20499SOL    HW261676   1.712   4.241   5.325 -0.4427  0.2809  0.4274
20500SOL     OW61677   3.730   7.635   6.178 -0.3422  0.1135 -0.3223
20500SOL    HW161678   3.704   7.598   6.089 -0.3630  0.2118 -0.3577
20500SOL    HW261679   3.650   7.674   6.224  0.1477  3.0314 -1.6659
20501SOL     OW61680   2.822   0.240   1.581 -0.1850 -0.1105  0.1116
20501SOL    HW161681   2.890   0.280   1.642  0.2899  1.3542 -1.2966
20501SOL    HW261682   2.731   0.248   1.623  0.1636  0.5677  0.7657
20502SOL     OW61683   5.604   2.311   3.470  0.1393  0.4366  0.1633
20502SOL    HW161684   5.692   2.300   3.423  0.5060  2.0057  0.4129
20502SOL    HW261685   5.618   2.304   3.569  0.5887  3.5478  0.4281
20503SOL     OW61686   3.871   0.914   4.179 -0.1001 -0.0874 -0.7824
20503SOL    HW161687   3.822   1.000   4.199  1.4968  0.7702 -0.3648
20503SOL    HW261688   3.838   0.842   4.240 -0.3110  0.6666  0.0187
20504SOL     OW61689   3.393   2.337   5.896 -0.8333 -0.6206 -0.7593
20504SOL    HW161690   3.305   2.385   5.897 -0.3956  0.2233  0.8729
20504SOL    HW261691   3.378   2.239   5.904 -1.6551 -0.5085 -0.9103
20505SOL     OW61692   5.374   2.893   6.343 -0.3032  0.2786  0.0855
20505SOL    HW161693   5.296   2.864   6.289  0.0964 -1.7227  0.5274
20505SOL    HW261694   5.342   2.945   6.423 -0.9637  2.0079 -1.2342
20506SOL     OW61695   3.824   4.870   7.173 -0.2541 -0.0007 -0.2169
20506SOL    HW161696   3.851   4.860   7.077  1.7219 -0.1906  0.3153
20506SOL    HW261697   3.862   4.796   7.227 -0.1631  0.8541  0.9419
20507SOL     OW61698   5.482   3.939   0.779 -0.4760  0.7415  0.0456
20507SOL    HW161699   5.570   3.892   0.780 -1.8748 -2.0670  0.8744
20507SOL    HW261700   5.456   3.963   0.872 -1.3957 -0.1253  0.0225
20508SOL     OW61701   3.017   2.112   1.608  0.4648  0.4500 -0.0177
20508SOL    HW161702   3.027   2.014   1.629  1.7038  0.6214  0.2188
20508SOL    HW261703   2.963   2.155   1.680 -1.8715 -0.4130 -1.1361
20509SOL     OW61704   0.665   7.219   6.441  0.3952  0.1671 -0.2133
20509SOL    HW161705   0.758   7.251   6.456  0.2395  0.0268  1.1970
20509SOL    HW261706   0.647   7.140   6.500 -1.5148  1.9576  1.7929
20510SOL     OW61707   2.227   2.434   1.912  0.2558 -0.0952  0.1951
20510SOL    HW161708   2.213   2.452   2.009  2.4591  0.0705  0.5381
20510SOL    HW261709   2.227   2.521   1.862 -2.1743 -0.2596 -0.2172
20511SOL     OW61710   6.953   6.757   0.861 -0.2358 -0.3233  0.4100
20511SOL    HW161711   7.040   6.707   0.861 -0.5450 -0.9400 -1.0694
20511SOL    HW261712   6.950   6.818   0.782 -0.9521  0.0575  0.7211
20512SOL     OW61713   3.694   0.817   2.968 -0.0845 -0.5662  0.1593
20512SOL    HW161714   3.662   0.820   2.873  0.7058  0.7782 -0.0984
20512SOL    HW261715   3.746   0.733   2.983 -0.5583 -0.9837 -0.4778
20513SOL     OW61716   6.583   0.867   7.918  0.7831  0.2037 -0.4611
20513SOL    HW161717   6.639   0.947   7.940 -0.4482  0.7273  0.9132
20513SOL    HW261718   6.591   0.799   7.991 -1.6957  1.0502  0.7054
20514SOL     OW61719   2.538   8.037   8.653 -0.0608 -0.1929 -0.0660
20514SOL    HW161720   2.579   8.120   8.690 -1.9032  1.1238 -0.8513
20514SOL    HW261721   2.479   8.060   8.576 -3.9368 -1.6189  2.2127
20515SOL     OW61722   8.129   6.233   8.168 -0.5102  0.0412 -0.6092
20515SOL    HW161723   8.211   6.218   8.112  0.4751  0.4110  0.6617
20515SOL    HW261724   8.123   6.330   8.191 -0.0290 -0.3053  1.1343
20516SOL     OW61725   4.960   3.020   4.021  0.3072  0.1209  0.0189
20516SOL    HW161726   5.021   2.962   4.075  1.2267  0.6061 -0.4699
20516SOL    HW261727   4.904   2.963   3.961 -1.2329 -0.4892  1.9173
20517SOL     OW61728   5.817   6.534   4.995 -0.2788  0.3650 -0.1526
20517SOL    HW161729   5.764   6.586   5.062 -1.1182 -0.2002 -0.3513
20517SOL    HW261730   5.914   6.543   5.014 -0.5134 -1.9824  2.8802
20518SOL     OW61731   4.962   3.146   2.369 -0.5983  0.0853 -0.3572
20518SOL    HW161732   4.969   3.229   2.424  0.2917 -0.4790  0.4223
20518SOL    HW261733   5.054   3.116   2.343 -0.9068 -0.6551 -0.6194
20519SOL     OW61734   8.393   1.783   1.612  0.2645  0.1171  0.2130
20519SOL    HW161735   8.422   1.687   1.616 -1.1797 -0.3194  1.8924
20519SOL    HW261736   8.400   1.823   1.703 -0.5436  1.1740 -0.1733
20520SOL     OW61737   3.337   2.015   4.692 -0.1584 -0.0960 -0.0137
20520SOL    HW161738   3.293   1.961   4.763 -0.3552  1.7469  1.3475
20520SOL    HW261739   3.430   2.038   4.720  0.1336 -0.2039 -0.8430
20521SOL     OW61740   2.848   4.578   1.270 -0.0995  0.5987  0.1922
20521SOL    HW161741   2.909   4.501   1.285 -0.1525  0.4608 -0.2654
20521SOL    HW261742   2.902   4.662   1.260  0.0606  0.3926 -0.7608
20522SOL     OW61743   7.090   1.802   5.294 -0.8799 -0.1397 -0.0173
20522SOL    HW161744   7.067   1.714   5.255  0.1286  0.9025 -3.2576
20522SOL    HW261745   7.187   1.821   5.279 -0.7956  1.0678  1.6778
20523SOL     OW61746   4.951   7.861   4.522  0.0730 -0.1078 -0.4131
20523SOL    HW161747   5.030   7.888   4.578 -1.4564  1.1628  1.2638
20523SOL    HW261748   4.890   7.939   4.511 -1.2281 -1.1983 -1.1865
20524SOL     OW61749   7.525   6.462   7.431  0.2104  0.8434 -0.2053
20524SOL    HW161750   7.589   6.399   7.475  1.2310  1.2487 -1.0605
20524SOL    HW261751   7.502   6.536   7.495  2.0260  1.6716 -0.4429
20525SOL     OW61752   6.412   4.620   1.020  0.3681  0.2542  0.4874
20525SOL    HW161753   6.376   4.533   1.055  0.3843  0.6470  1.5120
20525SOL    HW261754   6.407   4.689   1.092  0.8059  0.9794 -0.1698
20526SOL     OW61755   5.384   4.038   5.691 -0.1291 -0.0628  0.0537
20526SOL    HW161756   5.392   4.118   5.750  0.9085 -0.0593 -0.0713
20526SOL    HW261757   5.418   3.957   5.739  0.8151 -0.0402 -0.5575
20527SOL     OW61758   2.378   5.903   3.242  0.4861 -0.0520  0.4881
20527SOL    HW161759   2.303   5.932   3.301  1.5342 -0.4237  2.0625
20527SOL    HW261760   2.409   5.812   3.270 -0.0519 -0.9732 -1.7263
20528SOL     OW61761   6.063   1.190   8.096  0.5140  0.4544  0.1087
20528SOL    HW161762   6.091   1.208   8.191  1.6179  0.4726 -0.2059
20528SOL    HW261763   6.140   1.208   8.035 -0.0189 -0.1101 -0.7433
20529SOL     OW61764   4.554   7.271   7.765 -0.2191  0.0247 -0.7717
20529SOL    HW161765   4.455   7.267   7.754 -0.7071  2.9343  1.5762
20529SOL    HW261766   4.585   7.193   7.820 -1.7207  0.7586  1.2133
20530SOL     OW61767   0.280   0.267   6.916  0.0930  0.2409 -0.8014
20530SOL    HW161768   0.376   0.295   6.915  0.9826 -2.3149  0.5764
20530SOL    HW261769   0.264   0.200   6.844  0.5532 -2.4264  1.3869
20531SOL     OW61770   8.459   3.930   5.583 -0.3273 -0.6650 -0.2910
20531SOL    HW161771   8.376   3.963   5.628  0.4262 -0.2644  0.8456
20531SOL    HW261772   8.457   3.955   5.486 -1.7170 -1.0449 -0.3846
20532SOL     OW61773   1.973   1.028   8.445 -0.3442  0.2378 -0.0536
20532SOL    HW161774   1.949   0.962   8.517 -0.3416  0.2241 -0.0655
20532SOL    HW261775   2.072   1.026   8.431 -0.3049  0.4926  0.1866
20533SOL     OW61776   6.751   5.900   6.281 -0.1199 -0.0164 -0.2276
20533SOL    HW161777   6.749   5.900   6.181 -1.2953  0.8328 -0.2303
20533SOL    HW261778   6.755   5.806   6.314  0.1013 -0.3140 -1.0674
20534SOL     OW61779   0.993   5.679   3.634  0.0715 -0.5393 -0.9020
20534SOL    HW161780   0.989   5.769   3.678 -1.0764 -1.1901  0.4202
20534SOL    HW261781   1.077   5.632   3.662 -0.5874 -0.9004  0.6044
20535SOL     OW61782   2.615   0.406   0.393 -0.4122 -0.4461  0.4933
20535SOL    HW161783   2.569   0.341   0.454 -0.2486 -1.2272 -0.1975
20535SOL    HW261784   2.689   0.359   0.344 -0.8766  0.0158 -0.6921
20536SOL     OW61785   5.643   2.273   2.097  0.2564  0.5560  0.4296
20536SOL    HW161786   5.731   2.301   2.060  0.2828  2.8274  1.9913
20536SOL    HW261787   5.571   2.292   2.030  0.8303 -0.3273 -0.4498
20537SOL     OW61788   6.462   2.895   1.301  0.3518  0.0066  0.2343
20537SOL    HW161789   6.479   2.903   1.203 -0.5646 -2.2319 -0.1770
20537SOL    HW261790   6.454   2.798   1.325  3.2739  0.2680  3.0248
20538SOL     OW61791   2.365   0.447   0.014  0.2260 -0.0673 -0.6234
20538SOL    HW161792   2.288   0.471   0.072  0.2687  0.4740 -0.7873
20538SOL    HW261793   2.342   0.464  -0.081  1.3229  2.3016 -0.5231
20539SOL     OW61794   0.807   1.867   0.937  0.1040  0.0907  0.2440
20539SOL    HW161795   0.722   1.826   0.904  0.9821 -1.1912 -0.5105
20539SOL    HW261796   0.879   1.798   0.938  0.7331  0.6931  2.5777
20540SOL     OW61797   0.451   3.744   0.501 -0.3088 -0.1693  0.6295
20540SOL    HW161798   0.509   3.811   0.548 -1.0815  0.1749  1.1140
20540SOL    HW261799   0.463   3.655   0.543 -1.1545  0.1792  1.6583
20541SOL     OW61800   3.801   4.377   6.497 -0.3710 -0.5043  0.2740
20541SOL    HW161801   3.775   4.377   6.400 -1.3947 -1.6980  0.5209
20541SOL    HW261802   3.724   4.344   6.552  0.4827 -0.6539  1.4106
20542SOL     OW61803   4.253   3.254   8.645  0.1535 -0.3498 -0.1293
20542SOL    HW161804   4.165   3.260   8.693  1.1430 -1.1128  1.8864
20542SOL    HW261805   4.298   3.343   8.648  0.5732 -0.5820  1.1647
20543SOL     OW61806   7.951   3.260   6.841  0.1819 -0.3171 -0.0922
20543SOL    HW161807   8.035   3.267   6.789 -0.0763 -0.1793 -0.4926
20543SOL    HW261808   7.892   3.189   6.802 -0.3993  0.4000 -0.5506
20544SOL     OW61809   6.473   6.902   6.528  0.2543  0.2253  0.1803
20544SOL    HW161810   6.562   6.945   6.514 -0.6576  2.1828 -0.0148
20544SOL    HW261811   6.485   6.814   6.573  2.2636  0.6089  0.4862
20545SOL     OW61812   6.973   7.409   1.420  0.0613 -0.3799 -0.7286
20545SOL    HW161813   7.070   7.424   1.402  0.4554  0.7163  1.8216
20545SOL    HW261814   6.926   7.497   1.423 -1.1161 -0.9236 -2.2755
20546SOL     OW61815   1.166   0.004   7.081  0.2535  0.0769 -0.3984
20546SOL    HW161816   1.189  -0.076   7.027 -0.5980  0.4844 -1.4116
20546SOL    HW261817   1.162   0.084   7.021 -3.4199  0.1093 -0.3673
20547SOL     OW61818   4.086   2.283   4.692 -0.5358 -0.3602 -0.0535
20547SOL    HW161819   4.025   2.309   4.767  0.9062  2.1074  0.3741
20547SOL    HW261820   4.055   2.326   4.607 -0.1709 -0.1998 -0.1080
20548SOL     OW61821   8.176   2.630   5.473 -0.4456 -0.1850 -0.3231
20548SOL    HW161822   8.135   2.705   5.525 -0.0743 -0.5695  0.5403
20548SOL    HW261823   8.112   2.600   5.401  0.1049  2.1414 -1.8928
20549SOL     OW61824   1.512   5.740   2.027  0.2553  0.3451  0.1621
20549SOL    HW161825   1.456   5.822   2.038  1.0315  0.9429 -0.2122
20549SOL    HW261826   1.577   5.733   2.103  0.1562  0.0452  0.2214
20550SOL     OW61827   6.561   8.491   1.519 -0.0290  0.4198  0.2289
20550SOL    HW161828   6.609   8.526   1.439  0.6783 -2.2413 -0.6245
20550SOL    HW261829   6.471   8.456   1.491  0.1852 -0.4430  0.5848
20551SOL     OW61830   2.955   1.949   8.317  0.3488  0.1467  0.1152
20551SOL    HW161831   2.931   1.855   8.294 -0.1456  0.3750 -0.3241
20551SOL    HW261832   2.991   1.952   8.410 -2.1406 -0.0977  1.1760
20552SOL     OW61833   3.048   7.425   4.705 -0.0764  0.3204  0.3953
20552SOL    HW161834   3.044   7.512   4.755 -0.8878  1.0684 -0.9177
20552SOL    HW261835   2.973   7.366   4.735 -1.5778  1.4110 -1.0129
20553SOL     OW61836   5.418   7.781   7.294  0.0837  0.2908  0.1245
20553SOL    HW161837   5.381   7.698   7.253  1.2842 -0.4581  0.5266
20553SOL    HW261838   5.447   7.844   7.222 -0.3237  0.1428 -0.1764
20554SOL     OW61839   3.144   7.087   8.059 -0.3659  0.0569  0.3230
20554SOL    HW161840   3.136   7.172   8.112  0.6533  0.4276 -0.0975
20554SOL    HW261841   3.143   7.108   7.961 -1.3678 -0.5455  0.1891
20555SOL     OW61842   3.098   2.386   1.998  0.0795 -0.2008  0.0446
20555SOL    HW161843   3.182   2.385   1.944 -0.0021 -2.0356 -0.1428
20555SOL    HW261844   3.035   2.454   1.961  1.0320  0.3767 -0.5438
20556SOL     OW61845   0.149   0.141   2.834 -0.2471  0.4180  0.0632
20556SOL    HW161846   0.153   0.087   2.750  0.4884  1.2188 -0.4350
20556SOL    HW261847   0.242   0.169   2.860 -0.6943  2.3831 -0.3161
20557SOL     OW61848   3.226   0.741   1.327  0.0299  0.2840  0.1749
20557SOL    HW161849   3.240   0.730   1.229  0.4531  1.7736  0.0435
20557SOL    HW261850   3.141   0.697   1.354 -0.7834  1.0312 -1.1077
20558SOL     OW61851   0.343   8.502   4.006 -0.5882 -0.4082  0.2836
20558SOL    HW161852   0.262   8.541   3.961  0.1229  2.9042  1.5659
20558SOL    HW261853   0.425   8.527   3.955  0.0295  1.5068  2.0588
20559SOL     OW61854   0.764   2.962   4.753 -0.5642  0.3174 -0.3207
20559SOL    HW161855   0.731   2.918   4.836  0.3792 -0.3701 -0.2860
20559SOL    HW261856   0.717   3.048   4.739 -1.2931  0.0589  0.4999
20560SOL     OW61857   3.785   5.781   8.546 -0.2908 -0.5275 -0.6722
20560SOL    HW161858   3.842   5.855   8.511  2.8739 -2.7409 -0.6354
20560SOL    HW261859   3.709   5.764   8.483  0.0736  1.3852 -1.6909
20561SOL     OW61860   2.123   4.785   1.385  0.0789 -0.1858  0.1696
20561SOL    HW161861   2.105   4.696   1.343  1.7302 -0.1119 -0.7942
20561SOL    HW261862   2.094   4.858   1.323 -0.4778 -0.0569  0.5807
20562SOL     OW61863   1.752   5.044   8.140  0.1651  0.0011 -0.0529
20562SOL    HW161864   1.655   5.019   8.145 -0.1971  1.4951  1.6755
20562SOL    HW261865   1.806   4.978   8.193  0.4288 -1.9686 -2.5982
20563SOL     OW61866   8.284   5.879   0.191  0.4827  0.2761  0.3135
20563SOL    HW161867   8.305   5.792   0.235  0.2678  1.0353  1.9772
20563SOL    HW261868   8.223   5.863   0.114 -1.1806 -0.8587  1.7891
20564SOL     OW61869   3.741   5.608   4.648 -0.2365 -0.2115  0.1707
20564SOL    HW161870   3.778   5.622   4.740  0.0263 -0.2794  0.0762
20564SOL    HW261871   3.715   5.512   4.637 -0.3350 -0.1883  0.1981
20565SOL     OW61872   7.542   5.290   4.729  0.1043 -0.6691 -0.4617
20565SOL    HW161873   7.491   5.361   4.680 -1.7847 -1.4263  0.2850
20565SOL    HW261874   7.512   5.200   4.698  0.8366 -1.1519  0.1911
20566SOL     OW61875   1.742   8.301   7.284  0.0026  0.0521  0.2687
20566SOL    HW161876   1.662   8.361   7.277  0.1467  0.3327  0.9130
20566SOL    HW261877   1.742   8.236   7.208 -1.2282 -0.4253  0.6629
20567SOL     OW61878   8.145   4.770   8.514 -0.2567 -0.2586 -0.2643
20567SOL    HW161879   8.060   4.737   8.473 -0.7337 -0.1847  0.6392
20567SOL    HW261880   8.127   4.852   8.568  0.4011 -0.1974 -0.1216
20568SOL     OW61881   5.242   6.600   0.663  0.4090  0.5481 -0.3937
20568SOL    HW161882   5.211   6.656   0.740  1.0785 -1.1183  1.1605
20568SOL    HW261883   5.339   6.615   0.648  0.3475  0.6322 -0.7103
20569SOL     OW61884   0.858   5.592   7.200 -0.0565  0.1735  0.3611
20569SOL    HW161885   0.892   5.666   7.144  0.5199  0.1684  0.6977
20569SOL    HW261886   0.844   5.510   7.144 -1.9906  0.8876 -0.2952
20570SOL     OW61887   7.828   4.368   5.925 -0.2966  0.2885  0.1275
20570SOL    HW161888   7.795   4.458   5.953 -1.0560  0.1602 -0.3081
20570SOL    HW261889   7.928   4.369   5.919 -0.3277  1.2948 -0.5147
20571SOL     OW61890   3.069   5.518   4.639 -0.5064 -0.1618 -0.2422
20571SOL    HW161891   3.081   5.526   4.738 -0.5529 -0.1926 -0.2343
20571SOL    HW261892   3.012   5.439   4.619 -1.6991  0.6634 -0.2084
20572SOL     OW61893   5.244   6.141   0.539 -0.0034  0.4246  0.2157
20572SOL    HW161894   5.330   6.128   0.588  0.7864  1.1551 -0.9327
20572SOL    HW261895   5.219   6.057   0.492 -1.1127 -0.5019  2.3132
20573SOL     OW61896   6.772   8.217   1.916  0.4335  0.0101  0.3577
20573SOL    HW161897   6.784   8.118   1.920  0.5446  0.0568  1.2023
20573SOL    HW261898   6.680   8.237   1.881 -0.3464 -0.4296  2.0368
20574SOL     OW61899   5.841   3.139   1.383 -0.9843 -0.3317 -0.1520
20574SOL    HW161900   5.770   3.132   1.453  0.9976 -0.1375  2.0454
20574SOL    HW261901   5.857   3.048   1.343 -1.3219 -0.7279  0.5825
20575SOL     OW61902   5.500   7.646   1.661  0.5514 -0.6863 -0.1766
20575SOL    HW161903   5.496   7.722   1.725 -1.1867  1.6113 -2.7924
20575SOL    HW261904   5.549   7.675   1.579  0.0332 -2.4716 -1.1620
20576SOL     OW61905   4.294   3.248   7.650 -0.2090  0.4845  0.4271
20576SOL    HW161906   4.220   3.305   7.687 -1.4122  0.9728 -2.4975
20576SOL    HW261907   4.355   3.305   7.594 -0.1655 -0.7046 -0.7699
20577SOL     OW61908   6.821   7.629   2.227  0.2426 -0.2420  0.4742
20577SOL    HW161909   6.898   7.688   2.203  0.6752 -0.4785  1.2182
20577SOL    HW261910   6.750   7.637   2.158  0.6874  0.4326  0.0767
20578SOL     OW61911   0.423   6.543   2.340 -0.2852 -0.6410  0.0109
20578SOL    HW161912   0.431   6.609   2.415 -2.0819  1.7838 -1.7695
20578SOL    HW261913   0.510   6.539   2.290 -0.1444  0.4580  0.1243
20579SOL     OW61914   5.793   2.456   6.787 -0.1106 -0.5207 -0.1108
20579SOL    HW161915   5.800   2.386   6.716  0.5168 -1.0820  0.4943
20579SOL    HW261916   5.745   2.419   6.866 -0.9787  0.1620 -0.3014
20580SOL     OW61917   0.916   8.810   8.097 -0.0306  0.6925 -0.1320
20580SOL    HW161918   0.900   8.872   8.021 -0.1354 -0.1103 -0.7793
20580SOL    HW261919   0.831   8.794   8.146  0.2713  2.2234  0.9800
20581SOL     OW61920   7.677   4.987   5.627 -0.5288  0.5442 -0.1940
20581SOL    HW161921   7.688   5.076   5.670  0.2208  0.6724 -0.6343
20581SOL    HW261922   7.675   4.915   5.697  0.0963  0.8003  0.0923
20582SOL     OW61923   6.947   7.649   5.763 -0.3899 -0.1043  0.3530
20582SOL    HW161924   6.875   7.715   5.785  1.3322  2.3730 -0.9656
20582SOL    HW261925   6.961   7.646   5.664  1.2619 -0.5957  0.5629
20583SOL     OW61926   5.189   4.171   7.427 -0.3077 -0.7153  0.7745
20583SOL    HW161927   5.222   4.076   7.434 -0.4194 -1.0967 -2.3897
20583SOL    HW261928   5.264   4.230   7.398 -0.3047  0.1993  2.4898
20584SOL     OW61929   3.936   2.123   1.107  0.3566 -0.0543  0.5627
20584SOL    HW161930   3.923   2.095   1.202 -1.4137 -3.3161 -0.5001
20584SOL    HW261931   3.855   2.174   1.077  0.9796  1.1052  0.7900
20585SOL     OW61932   0.430   6.901   7.513 -0.7478 -0.0446  0.8384
20585SOL    HW161933   0.490   6.922   7.589 -1.0793  0.9288  0.8488
20585SOL    HW261934   0.334   6.913   7.541 -0.8385  2.1916 -0.2124
20586SOL     OW61935   7.631   8.605   5.689 -0.3537 -0.2179  0.1884
20586SOL    HW161936   7.679   8.692   5.681 -0.7754  0.0479  0.5275
20586SOL    HW261937   7.676   8.537   5.631  0.0757  0.1799  0.0484
20587SOL     OW61938   5.942   7.776   6.357 -0.6641  0.0244 -0.0417
20587SOL    HW161939   5.898   7.760   6.445  0.4150  1.5474  0.8183
20587SOL    HW261940   5.921   7.700   6.295  0.3468 -2.2410  2.2189
20588SOL     OW61941   4.830   5.667   2.093  0.1599  0.2551 -0.2652
20588SOL    HW161942   4.853   5.573   2.071  0.7679  0.1341  0.8071
20588SOL    HW261943   4.818   5.719   2.008  1.4718 -0.3947 -0.8862
20589SOL     OW61944   4.522   3.697   8.442 -0.4086  0.2050  0.1071
20589SOL    HW161945   4.608   3.647   8.452 -0.3026  0.2155 -0.6959
20589SOL    HW261946   4.477   3.669   8.357 -0.3218  1.5152 -0.3859
20590SOL     OW61947   1.467   0.553   1.526 -0.4097 -0.6098  0.7221
20590SOL    HW161948   1.409   0.472   1.538 -0.6716 -0.2622  1.9914
20590SOL    HW261949   1.444   0.621   1.596  0.7561 -0.0083  0.5444
20591SOL     OW61950   2.977   0.208   4.719  0.1752  0.6118 -0.0800
20591SOL    HW161951   3.001   0.305   4.713 -0.2460  0.6927 -0.4183
20591SOL    HW261952   2.888   0.198   4.764  0.9282  0.2945  1.4435
20592SOL     OW61953   8.125   3.519   0.787 -0.3277  0.0518  0.3833
20592SOL    HW161954   8.082   3.490   0.873 -1.7900  1.0542  0.0186
20592SOL    HW261955   8.164   3.610   0.798  0.1068 -0.1067  0.1788
20593SOL     OW61956   5.228   1.490   5.149 -0.2612 -0.2662 -0.0461
20593SOL    HW161957   5.258   1.437   5.070 -0.1393 -0.7628  0.3281
20593SOL    HW261958   5.283   1.466   5.229 -1.9456 -1.6074  0.7928
20594SOL     OW61959   3.166   8.540   2.604 -0.2075 -0.4803  0.2234
20594SOL    HW161960   3.110   8.459   2.594  0.0978 -0.6962  0.2506
20594SOL    HW261961   3.150   8.581   2.694  1.0721 -1.6163  1.0056
20595SOL     OW61962   2.551   8.380   4.322  0.7202 -0.2675 -0.0962
20595SOL    HW161963   2.533   8.419   4.413  0.0041 -0.8500  0.0168
20595SOL    HW261964   2.622   8.434   4.277  0.0665  0.9002  0.2318
20596SOL     OW61965   8.108   8.828   1.268  0.0667 -0.3668  0.2826
20596SOL    HW161966   8.097   8.881   1.353 -1.3596 -0.2185  0.0308
20596SOL    HW261967   8.050   8.747   1.272 -1.5030  0.6167 -1.2911
20597SOL     OW61968   8.498   7.965   1.302 -0.7557  0.5558  0.1703
20597SOL    HW161969   8.463   7.929   1.388 -1.5048  0.2336 -0.2540
20597SOL    HW261970   8.428   8.022   1.259 -0.1598  1.2339  0.0740
20598SOL     OW61971   5.014   7.189   8.363 -0.4753 -0.6486  0.1590
20598SOL    HW161972   4.915   7.172   8.360 -0.8148  1.2098 -2.8052
20598SOL    HW261973   5.030   7.283   8.392  0.3893 -0.6826 -0.1832
20599SOL     OW61974   3.002   7.451   2.353  0.6260  0.2948 -0.0822
20599SOL    HW161975   2.906   7.465   2.378  0.3316 -0.0180 -0.9886
20599SOL    HW261976   3.010   7.366   2.301  1.4961  0.0128  0.5065
20600SOL     OW61977   0.991   7.505   2.558 -0.5460  0.6953 -0.1336
20600SOL    HW161978   0.965   7.528   2.464  1.0260  1.0896 -0.4974
20600SOL    HW261979   1.028   7.413   2.561 -1.2318  0.4231  0.2433
20601SOL     OW61980   0.294   1.591   4.828 -0.5376 -0.4492 -0.3592
20601SOL    HW161981   0.343   1.600   4.741 -1.0607  0.0113 -0.6089
20601SOL    HW261982   0.358   1.604   4.903  0.0697 -1.5508 -0.6570
20602SOL     OW61983   7.352   4.011   6.225 -0.1400 -0.3384  0.2669
20602SOL    HW161984   7.428   3.946   6.225 -0.3235 -0.5778 -0.8595
20602SOL    HW261985   7.276   3.974   6.172  1.2165  2.3420 -4.1157
20603SOL     OW61986   3.934   4.704   0.652 -0.3647  0.3280  0.0210
20603SOL    HW161987   3.986   4.705   0.737  0.4415  1.5165 -0.4549
20603SOL    HW261988   3.897   4.612   0.636  2.0725 -0.7482  0.1140
20604SOL     OW61989   6.278   0.749   5.064 -0.2100 -0.0060 -0.0990
20604SOL    HW161990   6.285   0.849   5.063  1.5139 -0.0917 -1.3553
20604SOL    HW261991   6.255   0.718   5.157  2.4213  1.4256  1.1329
20605SOL     OW61992   3.301   2.942   8.267 -0.2290  0.3588 -0.4110
20605SOL    HW161993   3.254   2.957   8.354 -0.8505 -1.0987 -0.4681
20605SOL    HW261994   3.251   2.988   8.194  0.8519  2.4745  0.0795
20606SOL     OW61995   8.462   6.860   8.660 -0.7557 -0.1019  0.6966
20606SOL    HW161996   8.384   6.859   8.722  0.1190 -0.0987  1.8576
20606SOL    HW261997   8.541   6.901   8.707  0.5536 -2.1014  0.3779
20607SOL     OW61998   2.254   2.078   4.978  0.1361  0.3224  0.6189
20607SOL    HW161999   2.293   2.010   5.040 -0.8744 -0.2623  0.6359
20607SOL    HW262000   2.161   2.051   4.952 -0.2204  1.5970  0.4670
20608SOL     OW62001   8.056   7.480   5.328  0.0796  0.5802  0.2859
20608SOL    HW162002   8.060   7.405   5.263  2.1772  0.8196  0.0844
20608SOL    HW262003   7.964   7.485   5.368 -0.5403 -1.0707 -0.8518
20609SOL     OW62004   2.732   4.290   7.856  0.1124 -0.1661 -0.3375
20609SOL    HW162005   2.826   4.257   7.869  0.2857  0.3833 -0.1876
20609SOL    HW262006   2.730   4.389   7.863 -0.3011 -0.0843 -1.4293
20610SOL     OW62007   6.252   0.574   0.318  0.3824  0.2148  0.1114
20610SOL    HW162008   6.228   0.662   0.278  1.2648 -0.0097 -0.9581
20610SOL    HW262009   6.269   0.586   0.416 -3.4361  0.4779  0.8942
20611SOL     OW62010   6.758   5.623   6.344  0.0956  0.0594  0.2444
20611SOL    HW162011   6.722   5.557   6.278  1.3360  1.0055 -1.4602
20611SOL    HW262012   6.761   5.581   6.434 -1.9350 -1.1879 -0.1846
20612SOL     OW62013   4.798   5.484   6.144  0.0947 -0.4331  0.0450
20612SOL    HW162014   4.716   5.523   6.187 -0.2137  0.8970 -1.6441
20612SOL    HW262015   4.782   5.386   6.127 -1.1973 -0.1884 -0.3071
20613SOL     OW62016   2.853   1.279   2.070  0.2727 -0.0953  0.0312
20613SOL    HW162017   2.861   1.263   1.972 -0.4106  0.1811 -0.0673
20613SOL    HW262018   2.850   1.377   2.088  1.1256 -0.1203  0.3942
20614SOL     OW62019   7.814   2.524   5.107 -0.3278 -0.7225 -0.1516
20614SOL    HW162020   7.828   2.620   5.082 -0.1480 -0.8361 -0.4971
20614SOL    HW262021   7.717   2.503   5.107 -0.4149 -0.3527  0.6431
20615SOL     OW62022   4.609   4.474   2.405 -0.4133  0.1621 -0.0507
20615SOL    HW162023   4.639   4.491   2.499  0.2805 -1.8195  0.1359
20615SOL    HW262024   4.542   4.543   2.378  1.3666  2.3654  0.9250
20616SOL     OW62025   7.001   1.782   7.489  0.1883  0.2053  0.1106
20616SOL    HW162026   6.941   1.859   7.510 -0.6501 -0.1846 -0.7571
20616SOL    HW262027   6.987   1.709   7.556 -1.0092 -0.2500 -0.6042
20617SOL     OW62028   3.622   1.059   1.583 -0.1586 -0.2674  0.1362
20617SOL    HW162029   3.711   1.104   1.582 -0.6019  0.6015 -0.4680
20617SOL    HW262030   3.605   1.017   1.494 -0.1946 -0.7621  0.3724
20618SOL     OW62031   3.209   3.100   2.013  0.4352  0.2250  0.1040
20618SOL    HW162032   3.235   3.014   1.969 -1.3818 -0.7516  0.8246
20618SOL    HW262033   3.141   3.147   1.957  0.4482  0.5288  0.3444
20619SOL     OW62034   0.990   3.413   7.201 -0.0221 -0.2418 -0.1198
20619SOL    HW162035   0.948   3.456   7.280  0.9254 -0.8138  0.7183
20619SOL    HW262036   0.919   3.383   7.137 -0.8924 -1.1703  1.2512
20620SOL     OW62037   7.991   0.617   1.943 -0.2523  0.2319  0.3256
20620SOL    HW162038   7.893   0.610   1.926 -0.0521 -0.9075 -0.5053
20620SOL    HW262039   8.010   0.697   1.999 -2.0715 -1.4730  3.7065
20621SOL     OW62040   0.890   3.450   5.358  0.3418 -0.0078  0.5653
20621SOL    HW162041   0.866   3.369   5.412  0.8321 -0.4523  0.1269
20621SOL    HW262042   0.954   3.507   5.410 -0.1343  0.1924  0.9429
20622SOL     OW62043   6.061   2.637   4.050  0.2910 -0.1791 -0.1932
20622SOL    HW162044   5.968   2.666   4.031  0.9378  0.6545 -2.4470
20622SOL    HW262045   6.099   2.694   4.124 -0.6029  0.2555 -0.0584
20623SOL     OW62046   0.627   5.670   7.342 -0.2957 -0.4800  0.0446
20623SOL    HW162047   0.623   5.584   7.392  0.9333  0.0494  1.1051
20623SOL    HW262048   0.696   5.663   7.269  1.3437  0.2386  1.4691
20624SOL     OW62049   7.312   4.075   3.707  0.1463 -0.2094 -0.4057
20624SOL    HW162050   7.337   3.978   3.709  3.1170  0.4877  0.6725
20624SOL    HW262051   7.310   4.107   3.612  0.9578 -0.9265 -0.6789
20625SOL     OW62052   3.589   2.290   4.251 -0.0245  0.1189  0.0002
20625SOL    HW162053   3.659   2.219   4.243  1.5628  1.6496 -0.3230
20625SOL    HW262054   3.535   2.274   4.334  1.8637 -0.1647  1.2414
20626SOL     OW62055   8.413   5.540   4.943 -0.0309 -0.3816 -0.5854
20626SOL    HW162056   8.449   5.530   4.850 -0.7712 -1.6151 -0.7535
20626SOL    HW262057   8.345   5.613   4.944  0.3392 -0.0266 -0.8973
20627SOL     OW62058   5.684   6.953   4.068 -0.2836 -0.2169  0.1174
20627SOL    HW162059   5.754   7.024   4.067  0.1989 -0.6783  0.1638
20627SOL    HW262060   5.642   6.948   4.159 -0.8597  0.5203 -0.1065
20628SOL     OW62061   3.708   2.273   6.982 -0.1365  0.3464  0.0269
20628SOL    HW162062   3.662   2.214   7.048 -1.0956 -0.4077 -1.2622
20628SOL    HW262063   3.651   2.282   6.900  1.1477  0.9884 -0.8321
20629SOL     OW62064   7.682   5.133   3.718 -0.4550 -0.2195  0.7276
20629SOL    HW162065   7.675   5.107   3.814 -0.8234  0.2323  0.8252
20629SOL    HW262066   7.643   5.224   3.705 -2.0730 -1.0052 -0.1737
20630SOL     OW62067   6.788   6.048   1.296  0.0633  0.4349 -0.0348
20630SOL    HW162068   6.738   6.068   1.211  0.9566 -1.6805 -1.1410
20630SOL    HW262069   6.724   6.011   1.363 -0.0765 -1.6878 -1.2330
20631SOL     OW62070   2.700   3.307   4.357 -0.0951  0.6755 -0.3773
20631SOL    HW162071   2.768   3.337   4.290 -0.0459  0.6849 -0.3240
20631SOL    HW262072   2.618   3.275   4.310  0.4104 -0.4987 -0.4896
20632SOL     OW62073   8.270   0.144   8.168 -0.6970 -0.1720 -0.0249
20632SOL    HW162074   8.369   0.126   8.166 -0.6582  0.1078 -1.7489
20632SOL    HW262075   8.221   0.057   8.156 -0.7046 -0.3954  1.3999
20633SOL     OW62076   2.812   2.885   3.535  0.3519  0.1998 -0.1257
20633SOL    HW162077   2.797   2.891   3.634  0.7873  0.8255 -0.0920
20633SOL    HW262078   2.820   2.789   3.509 -0.4230 -0.0062  0.3416
20634SOL     OW62079   0.344   5.060   3.021 -0.1608  0.2764  0.3045
20634SOL    HW162080   0.368   5.142   2.969 -0.5445 -0.0342 -0.3686
20634SOL    HW262081   0.374   4.978   2.972 -1.0326 -0.0436  0.2855
20635SOL     OW62082   0.046   3.918   8.315  0.0681  0.1347  0.3413
20635SOL    HW162083   0.050   3.953   8.408 -0.3453 -0.6641  0.6737
20635SOL    HW262084  -0.043   3.939   8.275  0.4641  1.0234 -0.1126
20636SOL     OW62085   2.105   5.568   7.205 -0.8883 -0.3847  0.1141
20636SOL    HW162086   2.132   5.531   7.116 -3.4504 -2.7149  0.1833
20636SOL    HW262087   2.138   5.508   7.278 -2.3942 -0.8406  0.4431
20637SOL     OW62088   5.848   2.511   6.313 -0.2113 -0.2185  0.1669
20637SOL    HW162089   5.803   2.596   6.340 -0.3038 -0.2722  0.1817
20637SOL    HW262090   5.814   2.482   6.224 -1.2398 -0.9950  0.7871
20638SOL     OW62091   0.576   8.508   8.437 -0.6656 -0.2803 -0.1134
20638SOL    HW162092   0.670   8.535   8.418 -0.7520  0.7039  0.7588
20638SOL    HW262093   0.575   8.422   8.488 -0.2078  0.0307  0.4266
20639SOL     OW62094   7.749   2.963   8.632  0.4758  0.0923  0.5107
20639SOL    HW162095   7.724   3.056   8.662 -1.2740 -0.4453  0.8462
20639SOL    HW262096   7.833   2.934   8.679  1.4724  1.7594 -0.1522
20640SOL     OW62097   1.420   1.668   4.428  0.7894 -0.1088 -0.0300
20640SOL    HW162098   1.324   1.681   4.453  0.5486  0.3362 -1.1073
20640SOL    HW262099   1.452   1.579   4.460 -0.4608 -0.9598 -1.0398
20641SOL     OW62100   0.958   0.232   1.631 -0.0584  0.6635  0.2011
20641SOL    HW162101   0.923   0.325   1.623 -0.4893  0.4340 -0.7474
20641SOL    HW262102   0.927   0.178   1.553  0.9017 -0.0504  0.2947
20642SOL     OW62103   3.183   1.960   2.442  0.1181  0.6265  0.0825
20642SOL    HW162104   3.142   2.003   2.523 -0.2050 -0.5851  0.5858
20642SOL    HW262105   3.110   1.926   2.383  0.1905 -3.3345  1.9268
20643SOL     OW62106   2.040   2.414   5.168 -0.5757 -0.1994  0.3592
20643SOL    HW162107   2.076   2.474   5.097  0.1247 -0.6770  0.3133
20643SOL    HW262108   1.985   2.469   5.232  2.0384  1.0210  1.7305
20644SOL     OW62109   6.765   8.024   5.758 -0.3779 -0.6503 -0.0386
20644SOL    HW162110   6.857   8.017   5.721 -0.0893 -2.3884  0.9060
20644SOL    HW262111   6.698   8.023   5.683  0.3141 -0.2576 -0.6739
20645SOL     OW62112   4.201   5.534   0.443 -0.1428 -0.1518 -0.0922
20645SOL    HW162113   4.117   5.497   0.403 -0.8090  1.4706 -0.2987
20645SOL    HW262114   4.273   5.535   0.374 -0.0311 -1.2877  0.0006
20646SOL     OW62115   6.056   8.558   0.293  0.0001  0.3234  0.2346
20646SOL    HW162116   6.058   8.654   0.322 -1.6978  0.8268 -1.1512
20646SOL    HW262117   6.047   8.499   0.373 -0.2088  1.3833  1.0185
20647SOL     OW62118   4.076   0.762   1.345 -0.3383  0.1080  0.2528
20647SOL    HW162119   4.146   0.764   1.415  0.0941 -0.9485 -0.1369
20647SOL    HW262120   4.112   0.801   1.260  0.4589 -2.1667 -0.5216
20648SOL     OW62121   5.978   6.743   3.967  0.0896 -0.2092  0.0823
20648SOL    HW162122   5.993   6.645   3.961 -2.5417 -0.7774  1.3199
20648SOL    HW262123   5.907   6.771   3.903 -0.5836  0.4938  1.0836
20649SOL     OW62124   1.461   8.051   2.103 -0.4281  0.1582  0.1645
20649SOL    HW162125   1.391   7.986   2.074 -0.0740 -0.0699 -0.1948
20649SOL    HW262126   1.419   8.123   2.158 -0.9156 -0.0661  0.0923
20650SOL     OW62127   4.603   5.725   0.481  0.3989  0.0824 -0.2615
20650SOL    HW162128   4.657   5.690   0.404 -0.7416 -0.1417 -0.9894
20650SOL    HW262129   4.599   5.655   0.553  2.2432  0.6404  0.4358
20651SOL     OW62130   2.789   5.411   3.623  0.7397  0.1726 -0.7306
20651SOL    HW162131   2.862   5.371   3.567  0.8932 -0.6948  0.0461
20651SOL    HW262132   2.702   5.403   3.575  0.7792 -1.0746 -0.6295
20652SOL     OW62133   1.894   4.251   1.844  0.0953  0.2555 -0.5310
20652SOL    HW162134   1.983   4.241   1.800  0.1441 -0.1565 -0.3423
20652SOL    HW262135   1.826   4.282   1.776  0.0341 -0.9568 -1.0449
20653SOL     OW62136   6.102   5.238   0.106  0.2298 -0.1414 -0.4034
20653SOL    HW162137   6.038   5.309   0.137  0.7354  0.9666 -1.7870
20653SOL    HW262138   6.165   5.277   0.039  1.3426 -1.6119 -0.2636
20654SOL     OW62139   6.346   3.182   2.979 -0.4862  0.1454  0.2552
20654SOL    HW162140   6.267   3.197   2.919 -0.7308 -0.7196  0.3477
20654SOL    HW262141   6.428   3.172   2.923 -0.4888  0.7506  0.1412
20655SOL     OW62142   7.399   3.654   4.824 -0.1570  0.1539  0.2152
20655SOL    HW162143   7.427   3.733   4.880  0.3527  1.0284 -1.2340
20655SOL    HW262144   7.316   3.678   4.773 -1.5304 -1.1711  1.6949
20656SOL     OW62145   2.300   8.851   4.296 -0.4739 -0.1122  0.0593
20656SOL    HW162146   2.285   8.773   4.235 -0.0624 -0.0977 -0.0617
20656SOL    HW262147   2.212   8.889   4.323 -0.6830 -0.7827  0.3332
20657SOL     OW62148   4.850   8.428   7.533  0.2540  0.2064 -0.2552
20657SOL    HW162149   4.807   8.367   7.600 -0.2890 -0.7369 -1.4417
20657SOL    HW262150   4.780   8.470   7.475  0.7927  0.1089 -0.9897
20658SOL     OW62151   7.707   4.020   4.152  0.2726 -0.0165 -0.1299
20658SOL    HW162152   7.642   4.082   4.107 -1.4610 -0.5761  1.4762
20658SOL    HW262153   7.657   3.946   4.196  2.0336 -0.4447  1.2514
20659SOL     OW62154   7.456   0.501   0.258 -0.8522  0.1477 -0.5765
20659SOL    HW162155   7.497   0.437   0.193  1.4065  1.2326 -0.2887
20659SOL    HW262156   7.358   0.482   0.265 -0.4664 -2.5228 -1.3218
20660SOL     OW62157   7.228   6.982   3.158 -0.2513 -0.2616 -0.4665
20660SOL    HW162158   7.203   7.004   3.252  1.4875 -0.5956  0.0937
20660SOL    HW262159   7.155   6.926   3.117 -1.2047  0.2092  0.5262
20661SOL     OW62160   4.016   2.338   0.102 -0.4015  0.2079 -0.2037
20661SOL    HW162161   4.006   2.438   0.098  0.6598  0.3415  0.1933
20661SOL    HW262162   4.106   2.315   0.140 -1.4646 -0.9168  1.7381
20662SOL     OW62163   8.602   4.014   7.024  0.6053  0.0196 -0.2995
20662SOL    HW162164   8.507   3.998   6.999  0.6194 -1.3220  0.4503
20662SOL    HW262165   8.647   4.067   6.951  0.0754 -1.8647 -2.1114
20663SOL     OW62166   5.156   3.946   6.677  0.9951 -0.1735 -0.1117
20663SOL    HW162167   5.183   3.875   6.742  1.2931 -1.4541 -1.5637
20663SOL    HW262168   5.219   3.945   6.599 -0.1173  0.4118 -1.0557
20664SOL     OW62169   6.913   7.348   3.932  0.0065 -0.1124 -0.0221
20664SOL    HW162170   6.930   7.257   3.894  0.4549  0.2104 -0.6168
20664SOL    HW262171   6.828   7.385   3.895  0.3029  0.0872 -0.5324
20665SOL     OW62172   6.460   2.808   4.584 -0.4440 -0.3391  0.3717
20665SOL    HW162173   6.507   2.778   4.500 -1.2966  0.6176 -0.4769
20665SOL    HW262174   6.366   2.774   4.584 -1.7106  2.7728 -1.0117
20666SOL     OW62175   0.194   2.770   1.244  0.2801 -0.0032  0.1436
20666SOL    HW162176   0.276   2.717   1.263  1.4485  0.8495 -2.1922
20666SOL    HW262177   0.147   2.731   1.164  0.4098  1.6256 -0.7576
20667SOL     OW62178   3.591   4.159   7.693 -0.2567  0.2089 -0.1739
20667SOL    HW162179   3.686   4.127   7.692 -0.3995 -0.2241 -0.4036
20667SOL    HW262180   3.531   4.082   7.717 -0.4136  0.8588  1.6899
20668SOL     OW62181   6.625   0.158   8.618 -0.0171 -0.0640 -0.5482
20668SOL    HW162182   6.682   0.112   8.686  1.6513 -0.3444 -2.0635
20668SOL    HW262183   6.540   0.108   8.607 -0.1562 -0.2238  1.0477
20669SOL     OW62184   8.535   1.583   4.351 -0.3852  0.3188 -0.1798
20669SOL    HW162185   8.567   1.672   4.319 -0.4792 -0.2009 -1.7784
20669SOL    HW262186   8.570   1.567   4.444  1.4578  1.0916 -0.6905
20670SOL     OW62187   4.437   2.630   4.350 -0.1047 -0.1232 -0.1793
20670SOL    HW162188   4.478   2.616   4.260 -0.8048 -0.1312 -0.4951
20670SOL    HW262189   4.501   2.683   4.407  0.6004 -0.6477 -0.4717
20671SOL     OW62190   4.512   8.748   0.959  0.1003 -0.4777 -0.2611
20671SOL    HW162191   4.501   8.665   0.904  2.2599  0.1605 -1.8028
20671SOL    HW262192   4.426   8.799   0.959 -0.8121 -1.9379 -0.5639
20672SOL     OW62193   1.794   5.587   0.305  0.1682 -0.0957  0.4439
20672SOL    HW162194   1.716   5.646   0.324 -0.0164 -0.4355  0.7685
20672SOL    HW262195   1.866   5.602   0.373  0.1810 -0.1396  0.4403
20673SOL     OW62196   0.960   2.365   8.193 -0.2599 -0.2507 -0.4430
20673SOL    HW162197   0.906   2.443   8.223 -0.7379 -0.1855 -1.4365
20673SOL    HW262198   0.961   2.296   8.266 -1.0040  0.0849 -0.0965
20674SOL     OW62199   5.566   2.008   0.005 -0.2823 -0.2320  0.3631
20674SOL    HW162200   5.562   2.108   0.002  1.0871 -0.1451  0.7221
20674SOL    HW262201   5.661   1.979   0.014 -0.6997 -1.5632  0.6701
20675SOL     OW62202   6.015   6.491   1.129 -0.0124 -0.2495  0.0817
20675SOL    HW162203   6.084   6.420   1.122 -0.2904 -0.6017  0.7446
20675SOL    HW262204   5.948   6.466   1.199 -0.4187  0.4135 -0.0496
20676SOL     OW62205   5.682   5.138   2.216 -0.0167 -0.4466 -0.4154
20676SOL    HW162206   5.674   5.042   2.188  0.6314 -0.7549  0.4159
20676SOL    HW262207   5.745   5.145   2.293 -0.3773  0.6050 -0.2018
20677SOL     OW62208   0.218   0.743   7.584 -0.3108  0.1941  0.3310
20677SOL    HW162209   0.121   0.749   7.607 -0.6046  0.3229 -0.8682
20677SOL    HW262210   0.272   0.780   7.659 -1.1893  0.1960  0.9819
20678SOL     OW62211   6.866   0.301   4.949  0.3129 -0.1722  0.5332
20678SOL    HW162212   6.824   0.220   4.990  0.7831  0.4065  2.2169
20678SOL    HW262213   6.795   0.368   4.928 -0.1891 -1.2658 -1.6261
20679SOL     OW62214   7.634   6.224   5.276 -0.1625  0.1432 -0.2381
20679SOL    HW162215   7.613   6.165   5.354 -0.9987 -0.1751 -0.6909
20679SOL    HW262216   7.718   6.275   5.294 -0.1095 -0.2568  0.6805
20680SOL     OW62217   3.033   8.522   7.836 -0.3079 -0.1925  0.6375
20680SOL    HW162218   3.080   8.452   7.782  1.6880  1.5286  0.0397
20680SOL    HW262219   3.004   8.482   7.923  0.1673 -1.9147  0.0561
20681SOL     OW62220   4.991   2.625   4.960 -0.0172 -0.8718 -1.1523
20681SOL    HW162221   5.050   2.700   4.988 -1.3795 -0.5305  1.0248
20681SOL    HW262222   5.004   2.606   4.863 -0.4473  2.9475 -2.1050
20682SOL     OW62223   3.666   6.884   2.740  0.0368  0.0981 -0.3747
20682SOL    HW162224   3.595   6.954   2.747 -0.5622 -0.5638  0.4829
20682SOL    HW262225   3.746   6.921   2.694 -0.9303  0.8096 -1.5245
20683SOL     OW62226   6.257   8.018   4.636  0.2418  0.4563 -0.7821
20683SOL    HW162227   6.243   8.112   4.669  0.5869  0.3985 -0.4719
20683SOL    HW262228   6.312   8.021   4.552  0.7611  0.4932 -0.4431
20684SOL     OW62229   3.321   5.303   1.105  0.1356  0.0012 -0.2019
20684SOL    HW162230   3.389   5.239   1.142 -0.5827 -1.7233 -1.7479
20684SOL    HW262231   3.348   5.332   1.014  0.6009  2.2104  0.5918
20685SOL     OW62232   2.829   2.202   0.977  0.2970 -0.0052  0.3630
20685SOL    HW162233   2.747   2.250   0.946  0.3235  0.2651  0.6969
20685SOL    HW262234   2.849   2.126   0.915  1.4700  1.6653 -1.4073
20686SOL     OW62235   0.945   2.236   7.776 -0.7250 -0.6127 -0.0717
20686SOL    HW162236   0.894   2.160   7.816  0.7399 -2.6141 -1.8121
20686SOL    HW262237   0.943   2.314   7.839 -1.4377 -2.4017  2.2599
20687SOL     OW62238   4.017   3.799   3.354 -0.0246 -0.0246 -0.0712
20687SOL    HW162239   3.938   3.752   3.315 -0.2552 -0.1484  0.5403
20687SOL    HW262240   4.029   3.771   3.449 -0.0574  1.0126  0.2477
20688SOL     OW62241   0.719   5.035   0.784  0.4714  0.0748  0.5986
20688SOL    HW162242   0.767   4.970   0.724  1.1492  1.0973  0.0035
20688SOL    HW262243   0.783   5.104   0.817 -0.3615  0.8314  0.6852
20689SOL     OW62244   3.154   3.432   4.914 -0.0972 -0.6599 -0.1669
20689SOL    HW162245   3.125   3.338   4.897  0.0678 -0.9362  0.9818
20689SOL    HW262246   3.074   3.493   4.910 -0.1896 -0.8219 -1.0070
20690SOL     OW62247   1.153   4.227   5.815  0.4896  0.4278  0.3014
20690SOL    HW162248   1.122   4.292   5.745  3.1481  1.3629 -0.1534
20690SOL    HW262249   1.152   4.272   5.904  1.3009  0.7935  0.1449
20691SOL     OW62250   3.037   7.102   7.799  0.2449 -0.3121 -0.3253
20691SOL    HW162251   3.077   7.193   7.811  2.3992 -1.1446 -0.7970
20691SOL    HW262252   2.991   7.098   7.710 -2.1543  1.0547  0.7635
20692SOL     OW62253   2.903   1.528   1.671  0.3810  0.0706  0.0164
20692SOL    HW162254   2.962   1.455   1.706 -0.5680 -1.2442 -0.9948
20692SOL    HW262255   2.933   1.552   1.578  0.4236  0.6852  0.1868
20693SOL     OW62256   3.109   7.748   6.828  0.1119 -0.1956  0.2276
20693SOL    HW162257   3.206   7.725   6.817  0.3924  1.4761 -1.2596
20693SOL    HW262258   3.088   7.760   6.926  1.4713 -0.3046  0.5517
20694SOL     OW62259   5.576   1.559   5.365  0.5184 -0.2583 -0.1226
20694SOL    HW162260   5.630   1.643   5.375  1.0848 -0.5884 -0.3132
20694SOL    HW262261   5.636   1.480   5.378 -0.0481 -0.6363  0.2586
20695SOL     OW62262   4.189   4.159   0.433 -0.2454 -0.3287 -0.3815
20695SOL    HW162263   4.209   4.106   0.351 -0.7718 -0.6059 -0.3385
20695SOL    HW262264   4.274   4.194   0.472 -0.0565  0.6892 -1.6223
20696SOL     OW62265   8.239   7.838   0.129 -0.6796  0.5033  0.6358
20696SOL    HW162266   8.170   7.890   0.080 -0.1838  0.0954 -0.5318
20696SOL    HW262267   8.196   7.768   0.185 -1.2476  0.9010  0.6997
20697SOL     OW62268   1.872   6.122   8.588 -0.4919 -0.3514  0.1477
20697SOL    HW162269   1.804   6.102   8.659 -0.8828  1.9471  0.5012
20697SOL    HW262270   1.957   6.152   8.631 -0.0823 -0.8285 -0.3301
20698SOL     OW62271   2.466   6.479   1.949  0.0523  0.4123 -0.1824
20698SOL    HW162272   2.564   6.462   1.933  0.3836  1.3417  0.7155
20698SOL    HW262273   2.438   6.561   1.899 -0.8059 -0.9833 -2.1103
20699SOL     OW62274   3.441   8.069   7.247  0.1851 -0.6082  0.4810
20699SOL    HW162275   3.480   8.082   7.157 -0.0067 -1.6987  0.2195
20699SOL    HW262276   3.459   8.149   7.304  1.6199 -0.5245 -0.0463
20700SOL     OW62277   2.470   5.615   2.776 -0.5145  0.5346  0.9809
20700SOL    HW162278   2.519   5.624   2.863 -0.8732  0.0834  1.2362
20700SOL    HW262279   2.422   5.700   2.756  1.8061  1.6610 -0.1797
20701SOL     OW62280   3.147   3.830   0.432 -0.0663  0.1289 -0.2419
20701SOL    HW162281   3.185   3.878   0.512 -2.0525  0.1964  0.7112
20701SOL    HW262282   3.073   3.770   0.461 -0.6450 -0.0625 -2.0079
20702SOL     OW62283   2.873   7.821   6.308 -0.3840 -0.2811  0.3236
20702SOL    HW162284   2.859   7.722   6.306 -3.6704  0.0694  0.3683
20702SOL    HW262285   2.785   7.867   6.306  1.0595  2.7288 -1.1289
20703SOL     OW62286   7.844   3.570   8.397  0.0815 -0.5064  0.9674
20703SOL    HW162287   7.918   3.514   8.360  1.8723  0.6143  2.6856
20703SOL    HW262288   7.776   3.585   8.325  2.2231 -0.3354 -1.1799
20704SOL     OW62289   2.397   3.915   0.916  0.4368  0.5165  0.0999
20704SOL    HW162290   2.332   3.935   0.843  1.7723 -1.9977 -1.9578
20704SOL    HW262291   2.358   3.943   1.004 -3.6411 -1.1958 -0.9337
20705SOL     OW62292   3.617   3.955   4.316 -0.3382 -0.4811  0.2685
20705SOL    HW162293   3.705   3.909   4.306  1.5328  2.8772 -0.0706
20705SOL    HW262294   3.594   4.004   4.232 -2.1592 -0.5976  0.6418
20706SOL     OW62295   8.349   2.396   4.643 -0.5625  0.5040 -0.1965
20706SOL    HW162296   8.249   2.404   4.637 -0.7823 -2.2487 -1.9285
20706SOL    HW262297   8.382   2.448   4.723 -3.7209 -1.0764  2.3748
20707SOL     OW62298   4.998   8.830   1.041 -0.0420 -0.1560 -0.1371
20707SOL    HW162299   4.907   8.859   1.011 -0.1729 -0.0315  0.3791
20707SOL    HW262300   5.007   8.844   1.139  1.3080  2.0064 -0.4858
20708SOL     OW62301   3.060   7.942   6.137  0.3947 -0.4358 -0.6285
20708SOL    HW162302   3.003   7.872   6.180  0.6126  0.8006  1.8834
20708SOL    HW262303   3.001   8.010   6.093  0.0999 -1.1162 -1.2875
20709SOL     OW62304   6.000   3.966   6.367 -0.4820 -0.0973  0.8808
20709SOL    HW162305   5.925   3.915   6.326 -0.1939 -1.0090  1.4739
20709SOL    HW262306   5.976   3.993   6.460 -0.3390  0.2004  0.8333
20710SOL     OW62307   5.903   3.638   0.738  0.2183 -0.2497 -0.3064
20710SOL    HW162308   5.873   3.543   0.728  0.1739 -0.3607  0.7928
20710SOL    HW262309   5.994   3.648   0.698 -0.3314 -0.4248 -1.6617
20711SOL     OW62310   7.899   5.680   4.551 -0.4117 -0.1477 -0.1801
20711SOL    HW162311   7.845   5.741   4.493 -0.7133 -0.5154 -0.2844
20711SOL    HW262312   7.844   5.652   4.630 -0.3790 -0.5399 -0.2966
20712SOL     OW62313   7.850   0.132   8.753 -0.5012 -0.3927  0.6187
20712SOL    HW162314   7.768   0.088   8.715  0.5598 -0.7353 -1.4101
20712SOL    HW262315   7.861   0.222   8.713  0.4513 -0.6048  0.3844
20713SOL     OW62316   3.309   2.700   0.643 -0.2669  0.1513  0.8134
20713SOL    HW162317   3.327   2.798   0.638 -2.0457  0.4713  0.0791
20713SOL    HW262318   3.286   2.675   0.737 -0.2755  0.5353  0.9140
20714SOL     OW62319   8.215   4.918   4.150 -0.3134  0.2914 -0.3836
20714SOL    HW162320   8.190   5.014   4.133  1.2910  0.8375  0.0810
20714SOL    HW262321   8.245   4.876   4.065  0.4625  0.6909 -0.3135
20715SOL     OW62322   5.999   1.626   2.719  0.4635  0.1272  0.2420
20715SOL    HW162323   5.939   1.566   2.772 -0.6175  0.7603 -0.2248
20715SOL    HW262324   6.006   1.590   2.625  1.0541 -0.0954  0.3655
20716SOL     OW62325   3.273   8.045   4.742  0.1897  0.2904  0.1747
20716SOL    HW162326   3.180   8.078   4.722  0.2665 -0.3355 -1.3765
20716SOL    HW262327   3.295   8.063   4.838 -0.4604  3.0552 -0.1053
20717SOL     OW62328   2.619   5.006   2.953  0.5282  0.5161 -0.5026
20717SOL    HW162329   2.680   4.942   2.905  0.5323 -0.1674  0.3646
20717SOL    HW262330   2.673   5.082   2.989  0.7705  0.2460 -0.2881
20718SOL     OW62331   7.010   6.908   6.466 -0.2849  0.3694 -0.3585
20718SOL    HW162332   7.069   6.843   6.514 -0.4297 -1.2748 -2.2567
20718SOL    HW262333   7.065   6.965   6.405 -0.4376  0.2083 -0.6481
20719SOL     OW62334   4.680   6.099   7.305 -0.3831 -0.2938 -0.7447
20719SOL    HW162335   4.665   6.117   7.208  1.3009 -2.0228 -1.3736
20719SOL    HW262336   4.769   6.056   7.318 -0.9982 -1.0281  1.4695
20720SOL     OW62337   0.623   7.592   5.378 -0.0373  0.1885 -0.5071
20720SOL    HW162338   0.686   7.515   5.380 -1.0984 -0.6898  0.3659
20720SOL    HW262339   0.653   7.657   5.309  1.0127 -0.8816 -1.1038
20721SOL     OW62340   2.465   6.830   7.445  0.1533 -0.1740  0.2176
20721SOL    HW162341   2.533   6.820   7.517  0.1383  0.4242  0.3181
20721SOL    HW262342   2.453   6.927   7.424 -0.8855 -0.2496  0.4098
20722SOL     OW62343   2.481   3.031   2.037  0.8103  0.3359  0.0497
20722SOL    HW162344   2.521   3.067   2.122 -1.0157  0.1642  1.0372
20722SOL    HW262345   2.480   2.931   2.041 -2.8651  0.2753  1.7419
20723SOL     OW62346   4.592   6.801   6.733 -0.2198  0.5698 -0.0449
20723SOL    HW162347   4.577   6.704   6.717 -1.2304  0.3639  1.8656
20723SOL    HW262348   4.640   6.814   6.820 -0.9841  1.7760  0.2340
20724SOL     OW62349   4.298   1.729   2.015  0.0956 -0.0749  0.0996
20724SOL    HW162350   4.275   1.656   2.080 -0.2275 -0.3692 -0.3387
20724SOL    HW262351   4.384   1.706   1.970 -0.0371 -0.2148 -0.0824
20725SOL     OW62352   2.788   6.726   7.603 -0.0691  0.6906 -0.0558
20725SOL    HW162353   2.738   6.688   7.680 -0.1958 -0.3299 -0.6175
20725SOL    HW262354   2.788   6.826   7.608  1.3833  0.6392  2.1820
20726SOL     OW62355   7.783   7.475   8.316 -0.4101  0.8048 -0.3473
20726SOL    HW162356   7.821   7.441   8.230 -1.5636  0.3752 -0.7157
20726SOL    HW262357   7.703   7.531   8.296  0.1004  1.8163  0.3944
20727SOL     OW62358   0.433   2.340   1.569 -0.6994  0.2822  0.5066
20727SOL    HW162359   0.443   2.383   1.659 -1.3390  1.0706  0.2157
20727SOL    HW262360   0.399   2.407   1.504 -0.2588 -0.2871 -0.3319
20728SOL     OW62361   5.921   4.245   8.287 -0.0143  0.0428 -0.9420
20728SOL    HW162362   5.993   4.254   8.218 -0.5875  2.5403 -1.3092
20728SOL    HW262363   5.832   4.233   8.241 -0.0218 -1.7828 -0.5158
20729SOL     OW62364   7.097   2.382   8.660 -0.4328 -0.3344  0.4153
20729SOL    HW162365   7.038   2.303   8.645  2.8205 -2.8867 -0.0531
20729SOL    HW262366   7.126   2.420   8.572 -1.0196  0.6596  0.6351
20730SOL     OW62367   4.241   5.505   4.437  0.0880 -0.1637 -0.5430
20730SOL    HW162368   4.149   5.532   4.407 -0.2365  0.1202  0.6592
20730SOL    HW262369   4.303   5.507   4.359 -0.4499  1.7625 -0.9743
20731SOL     OW62370   6.417   5.941   4.088  0.2252  0.2526  0.2026
20731SOL    HW162371   6.429   5.932   3.989  0.0141  0.8195  0.1259
20731SOL    HW262372   6.454   5.859   4.133 -0.2042 -0.2729 -0.3826
20732SOL     OW62373   3.918   1.311   4.390  0.2416 -0.3327  0.5732
20732SOL    HW162374   3.909   1.332   4.487 -0.6075  1.9918  0.0384
20732SOL    HW262375   4.006   1.344   4.357  0.1700 -0.3605  0.3535
20733SOL     OW62376   1.385   2.685   4.157 -0.0105 -0.2048  0.0580
20733SOL    HW162377   1.308   2.745   4.137  0.3173  0.5192  0.8836
20733SOL    HW262378   1.380   2.604   4.099  0.2131  1.1687 -1.9614
20734SOL     OW62379   2.693   1.970   1.167  0.0737  0.0148 -0.0743
20734SOL    HW162380   2.691   1.896   1.100  2.0211 -1.4651  1.3626
20734SOL    HW262381   2.774   2.027   1.151 -0.3832  0.6881 -0.0115
20735SOL     OW62382   7.120   7.671   6.161 -0.1963  0.4211  0.3546
20735SOL    HW162383   7.172   7.677   6.245  0.0754  0.9760  0.1512
20735SOL    HW262384   7.048   7.741   6.161  0.6207  1.2988 -0.4183
20736SOL     OW62385   8.599   6.470   6.837 -0.1003 -0.3340  0.2241
20736SOL    HW162386   8.567   6.519   6.918 -1.1504  1.1954 -1.0437
20736SOL    HW262387   8.543   6.388   6.824 -0.8693  0.1695  0.2769
20737SOL     OW62388   8.368   7.498   3.584  0.3890  0.2299 -0.2376
20737SOL    HW162389   8.284   7.496   3.529  0.6335 -0.1974 -0.5959
20737SOL    HW262390   8.405   7.405   3.593 -0.6872 -0.0329  2.2651
20738SOL     OW62391   5.978   5.851   1.248 -0.2156 -0.1817 -0.4049
20738SOL    HW162392   6.000   5.948   1.259  0.8165 -0.2537 -1.6588
20738SOL    HW262393   5.928   5.836   1.163  0.3646 -0.8527 -0.6401
20739SOL     OW62394   1.052   7.791   1.130 -0.3464  0.1999  0.2526
20739SOL    HW162395   0.973   7.812   1.187  0.5881  1.2169  1.2235
20739SOL    HW262396   1.078   7.871   1.077 -0.2914 -0.2878 -0.4674
20740SOL     OW62397   3.609   5.311   4.704 -0.1305  0.4023 -0.0718
20740SOL    HW162398   3.557   5.287   4.622 -0.3686 -0.3247  0.2823
20740SOL    HW262399   3.681   5.244   4.719 -1.2240 -0.5158  1.3043
20741SOL     OW62400   3.998   0.675   4.543  0.0017 -0.1350  0.1505
20741SOL    HW162401   4.097   0.690   4.544 -0.2837  2.3623 -1.2785
20741SOL    HW262402   3.979   0.577   4.545  2.4647 -0.6701  0.8902
20742SOL     OW62403   2.224   7.853   3.222  0.7030  0.6920 -0.5978
20742SOL    HW162404   2.236   7.780   3.289 -1.8890 -0.8932 -1.6528
20742SOL    HW262405   2.151   7.915   3.252  0.7407  0.9987 -1.1150
20743SOL     OW62406   1.645   7.793   3.045 -0.0485 -0.2886 -0.6225
20743SOL    HW162407   1.680   7.833   3.130  0.2137 -0.1878 -0.7761
20743SOL    HW262408   1.716   7.735   3.005  0.1568  0.3885 -1.2518
20744SOL     OW62409   2.002   8.278   0.238 -0.5513  0.3949  0.3958
20744SOL    HW162410   2.062   8.219   0.291 -1.8248  0.5127  2.0629
20744SOL    HW262411   1.950   8.223   0.172  1.2549  0.2850 -1.0103
20745SOL     OW62412   5.815   3.203   0.310 -0.2273  0.2061  0.0352
20745SOL    HW162413   5.720   3.219   0.282 -0.2896 -0.9813 -0.4803
20745SOL    HW262414   5.850   3.122   0.263  1.8371  1.9403 -1.6740
20746SOL     OW62415   2.883   4.587   6.709 -0.7854  0.5219 -0.1414
20746SOL    HW162416   2.940   4.517   6.752 -2.1145 -1.1292 -0.8943
20746SOL    HW262417   2.806   4.608   6.769 -2.1181 -1.0820 -1.1749
20747SOL     OW62418   1.261   1.824   6.285 -0.4142 -0.4439 -0.9402
20747SOL    HW162419   1.188   1.810   6.351 -0.0344 -1.5872 -0.7244
20747SOL    HW262420   1.244   1.767   6.204  0.3645 -0.9621 -0.7583
20748SOL     OW62421   4.018   2.127   7.483  0.3524  0.0484  0.6827
20748SOL    HW162422   4.008   2.215   7.529  0.8262  0.5365 -0.1209
20748SOL    HW262423   4.049   2.141   7.389  0.9907 -0.9995  0.7102
20749SOL     OW62424   6.086   3.613   8.398  0.9295 -0.0229  0.2840
20749SOL    HW162425   6.072   3.711   8.391 -1.6695 -0.3000  0.5087
20749SOL    HW262426   6.025   3.575   8.468  0.9858 -1.9521 -0.6344
20750SOL     OW62427   5.648   7.832   5.106 -0.1722  0.6483  0.0555
20750SOL    HW162428   5.613   7.879   5.025 -0.0815  2.1719  0.8718
20750SOL    HW262429   5.667   7.898   5.178 -0.0100 -0.6489  1.2564
20751SOL     OW62430   6.437   3.298   1.946 -0.0016  0.4152  0.0149
20751SOL    HW162431   6.402   3.385   1.912 -0.8920  0.0431 -0.0378
20751SOL    HW262432   6.416   3.289   2.043 -0.2582  0.0971 -0.0658
20752SOL     OW62433   3.925   4.452   0.134  0.0054  0.0628  0.5772
20752SOL    HW162434   3.865   4.500   0.198 -1.1557 -1.4195  0.6467
20752SOL    HW262435   3.984   4.389   0.183  0.1797  0.0173  0.3138
20753SOL     OW62436   1.773   6.072   6.385  0.2987  0.0390 -0.3852
20753SOL    HW162437   1.783   6.027   6.474  0.9057 -0.2300 -0.5779
20753SOL    HW262438   1.821   6.018   6.315  0.2855  0.5262 -0.7790
20754SOL     OW62439   7.697   3.949   6.932 -0.3166 -0.0224 -0.1862
20754SOL    HW162440   7.714   3.965   7.029  0.9481 -1.6986 -0.1021
20754SOL    HW262441   7.622   3.884   6.921  0.2013 -0.6013 -0.3053
20755SOL     OW62442   8.395   1.707   5.193  0.2155 -0.4156 -0.3036
20755SOL    HW162443   8.365   1.766   5.118 -0.9111  0.2562  0.6280
20755SOL    HW262444   8.494   1.697   5.191  0.5323  2.0778 -0.1377
20756SOL     OW62445   5.511   3.292   5.614 -0.4396 -0.0141  0.1413
20756SOL    HW162446   5.511   3.232   5.695 -1.8261  0.0724  0.2234
20756SOL    HW262447   5.604   3.326   5.599  0.0749 -0.9541  1.0055
20757SOL     OW62448   0.465   8.605   1.418 -0.4398  0.1300 -0.0652
20757SOL    HW162449   0.417   8.527   1.376  1.4008 -1.1351  0.0606
20757SOL    HW262450   0.516   8.654   1.348  0.7819 -0.5974  0.2819
20758SOL     OW62451   6.218   0.509   5.880 -0.4792  0.0526  0.2654
20758SOL    HW162452   6.148   0.441   5.900  0.5218 -0.3356  2.9692
20758SOL    HW262453   6.308   0.466   5.884  0.2013  1.4817  2.2439
20759SOL     OW62454   8.627   8.628   4.351  0.2238  0.3366 -0.0205
20759SOL    HW162455   8.651   8.715   4.309 -1.6679  1.1945  0.5690
20759SOL    HW262456   8.563   8.579   4.291 -0.0641  0.1385  0.4465
20760SOL     OW62457   7.825   1.272   3.612  0.1178 -0.0743  0.2320
20760SOL    HW162458   7.917   1.232   3.620 -0.1807 -1.2749 -1.8423
20760SOL    HW262459   7.830   1.369   3.635  2.2223  0.2220 -1.1618
20761SOL     OW62460   0.549   5.698   3.606  0.4488 -0.0567  0.5029
20761SOL    HW162461   0.455   5.669   3.589  0.6929 -0.2659 -0.5724
20761SOL    HW262462   0.552   5.795   3.627  0.0434  0.0572  0.0336
20762SOL     OW62463   2.652   3.837   6.142  0.2674  0.0665 -0.2528
20762SOL    HW162464   2.677   3.802   6.052 -0.0725  1.5447 -0.9476
20762SOL    HW262465   2.690   3.777   6.212 -0.6255 -1.8973 -1.3649
20763SOL     OW62466   1.712   4.292   8.046 -0.0006 -0.2206 -0.3384
20763SOL    HW162467   1.694   4.308   8.143  0.5631  2.7291 -0.6400
20763SOL    HW262468   1.650   4.346   7.990  1.0777 -0.2135 -1.5863
20764SOL     OW62469   7.092   7.214   6.692  0.1887 -0.5191 -0.2530
20764SOL    HW162470   7.149   7.267   6.628 -0.3732  0.7212  0.2486
20764SOL    HW262471   7.149   7.179   6.766  0.7451 -1.4873 -1.1135
20765SOL     OW62472   0.487   2.343   4.547 -0.3187 -0.3093  0.2797
20765SOL    HW162473   0.542   2.318   4.468 -0.8881  0.0600 -0.2417
20765SOL    HW262474   0.510   2.436   4.575 -3.0367  1.2425 -2.0998
20766SOL     OW62475   5.554   8.784   5.886 -0.2036 -0.4101 -0.1800
20766SOL    HW162476   5.496   8.831   5.953 -1.4952  0.0283 -1.5281
20766SOL    HW262477   5.526   8.688   5.880  0.6911 -0.7388  0.7139
20767SOL     OW62478   6.852   0.018   1.007  0.0010  0.3275 -0.4737
20767SOL    HW162479   6.851   0.082   0.930  0.6429 -0.9702 -1.5998
20767SOL    HW262480   6.938   0.027   1.057  0.1913  0.1859 -0.7734
20768SOL     OW62481   0.250   6.237   4.411 -0.1639 -0.0904  0.4298
20768SOL    HW162482   0.175   6.247   4.346  0.7040 -0.3767 -0.6398
20768SOL    HW262483   0.336   6.224   4.362  0.4690 -0.6683  1.6385
20769SOL     OW62484   3.755   0.303   1.834  0.1177  0.7790 -0.7186
20769SOL    HW162485   3.718   0.259   1.752 -0.3012 -2.9066  1.2268
20769SOL    HW262486   3.853   0.319   1.822  0.4312 -1.3078 -1.4163
20770SOL     OW62487   4.198   4.885   5.493  0.4660 -0.4665 -0.0147
20770SOL    HW162488   4.216   4.909   5.397  0.8512 -2.9066 -0.6341
20770SOL    HW262489   4.107   4.917   5.519 -0.2409 -1.0143 -1.6921
20771SOL     OW62490   6.858   6.473   0.687 -0.1411  0.1897  0.1331
20771SOL    HW162491   6.818   6.383   0.700  1.2938 -0.5880 -0.5547
20771SOL    HW262492   6.787   6.543   0.694 -1.5725 -1.0987 -0.9616
20772SOL     OW62493   0.315   4.192   2.593 -0.1039 -0.1983 -0.2606
20772SOL    HW162494   0.270   4.106   2.571 -2.4004  1.0271 -0.6733
20772SOL    HW262495   0.344   4.237   2.509  1.0128 -0.4903 -0.0510
20773SOL     OW62496   3.981   8.573   3.028  0.3811 -0.0226  0.3351
20773SOL    HW162497   3.949   8.667   3.035 -0.8289 -0.2242 -1.6989
20773SOL    HW262498   4.014   8.542   3.118 -1.5117  1.5118  1.6422
20774SOL     OW62499   2.574   3.672   8.569 -0.2510  0.1976  0.4080
20774SOL    HW162500   2.559   3.699   8.474 -0.8881 -1.1579  0.0973
20774SOL    HW262501   2.668   3.693   8.595  0.1176  0.0187 -0.7271
20775SOL     OW62502   6.573   3.652   2.940  0.2843  0.5799  0.8104
20775SOL    HW162503   6.596   3.618   2.849  0.8429  1.8069  0.4600
20775SOL    HW262504   6.530   3.580   2.993  2.3356 -0.9897  0.4741
20776SOL     OW62505   7.818   2.076   1.565  0.3085  0.5939  0.2609
20776SOL    HW162506   7.728   2.073   1.523 -0.4111  1.1394  1.7021
20776SOL    HW262507   7.832   2.165   1.608  1.2262  0.2393  0.7347
20777SOL     OW62508   0.466   5.331   2.894  0.4149 -0.3068  0.4642
20777SOL    HW162509   0.464   5.256   2.828 -0.0320 -0.5815  0.7871
20777SOL    HW262510   0.545   5.320   2.954  0.8401 -0.0402 -0.0379
20778SOL     OW62511   3.980   3.691   5.103 -0.3782  0.4804  0.1456
20778SOL    HW162512   4.011   3.709   5.196  0.9334  0.9386 -0.3696
20778SOL    HW262513   4.018   3.604   5.071  0.6361  1.1625 -0.5745
20779SOL     OW62514   5.345   0.928   3.045 -0.4227  0.0562 -0.1425
20779SOL    HW162515   5.298   0.887   2.966 -0.0599  0.9925 -0.8660
20779SOL    HW262516   5.284   0.995   3.088 -1.1119 -1.3687  1.1952
20780SOL     OW62517   4.916   6.407   0.839 -0.1287  0.1854 -0.4479
20780SOL    HW162518   4.937   6.404   0.937 -0.4829  0.6099 -0.3560
20780SOL    HW262519   4.874   6.321   0.811  1.9278 -0.7959 -0.6859
20781SOL     OW62520   7.395   1.991   2.102  0.4959 -0.4338 -0.0225
20781SOL    HW162521   7.490   1.959   2.102  0.4250 -0.8472  2.5079
20781SOL    HW262522   7.335   1.917   2.133 -0.9634 -0.7385 -3.1883
20782SOL     OW62523   1.880   7.909   8.607 -0.4211  0.1506 -0.0348
20782SOL    HW162524   1.976   7.893   8.631  0.1652  0.5325 -1.9321
20782SOL    HW262525   1.875   7.984   8.541 -1.6318 -2.1609 -2.7554
20783SOL     OW62526   4.135   8.167   7.552 -0.2864  0.4490  0.3825
20783SOL    HW162527   4.137   8.071   7.581  1.4050 -0.0819 -1.2845
20783SOL    HW262528   4.198   8.220   7.610 -1.6334  0.7108  1.6642
20784SOL     OW62529   3.551   5.837   1.650  0.0715  0.3484  0.1231
20784SOL    HW162530   3.547   5.740   1.630  0.1857  0.3735 -0.0231
20784SOL    HW262531   3.469   5.865   1.701 -0.5003  0.4004 -0.8031
20785SOL     OW62532   1.733   6.337   0.995  0.5573 -0.0603  0.3544
20785SOL    HW162533   1.806   6.375   0.938 -1.2780  3.9310  0.3839
20785SOL    HW262534   1.645   6.352   0.952 -0.6360 -0.3537  2.5383
20786SOL     OW62535   4.179   3.113   7.010  0.3540  0.2554 -0.0322
20786SOL    HW162536   4.261   3.061   6.984  1.4070  0.7534  2.0267
20786SOL    HW262537   4.206   3.190   7.068 -1.5464  0.7917  0.1995
20787SOL     OW62538   5.202   5.704   3.944  0.1919 -0.6494 -0.4716
20787SOL    HW162539   5.282   5.657   3.981 -0.1183 -0.2837  0.7281
20787SOL    HW262540   5.210   5.802   3.961 -1.4804 -0.8027  1.7231
20788SOL     OW62541   4.950   2.292   3.033  0.3668 -0.6195  0.2508
20788SOL    HW162542   4.985   2.337   2.951  1.2264 -0.6927  0.5675
20788SOL    HW262543   4.986   2.198   3.037 -1.0722 -1.2119 -0.1901
20789SOL     OW62544   1.990   3.957   0.220  0.1766  0.2771 -0.2554
20789SOL    HW162545   1.978   4.051   0.190 -0.4807 -0.0733 -1.1353
20789SOL    HW262546   2.041   3.906   0.149 -1.8723 -0.7015 -1.0973
20790SOL     OW62547   0.785   2.909   7.950 -0.3519 -0.4264  0.1639
20790SOL    HW162548   0.708   2.971   7.959  0.1082  0.4014 -1.2733
20790SOL    HW262549   0.807   2.896   7.853  0.7725 -1.3069  0.5083
20791SOL     OW62550   0.653   0.805   4.725  0.2482 -0.0466  0.1290
20791SOL    HW162551   0.609   0.790   4.636  0.6643 -0.9544  0.0668
20791SOL    HW262552   0.734   0.862   4.712  0.9122 -1.0620 -0.2392
20792SOL     OW62553   7.852   8.425   4.901 -0.1301 -0.3598 -0.6773
20792SOL    HW162554   7.834   8.409   4.998 -2.7138  0.3543 -0.9632
20792SOL    HW262555   7.910   8.505   4.890  2.3823 -1.9330  0.3058
20793SOL     OW62556   1.072   1.929   5.339  0.0201 -0.2586 -0.0607
20793SOL    HW162557   1.107   1.836   5.351  1.0876  0.1327 -0.1178
20793SOL    HW262558   1.145   1.989   5.306 -0.2596  0.9405  1.3880
20794SOL     OW62559   7.908   3.630   6.335 -0.9510 -0.0281 -0.0943
20794SOL    HW162560   7.873   3.604   6.425 -2.7636  1.4640 -0.3160
20794SOL    HW262561   8.002   3.663   6.344 -1.5999  1.5232  1.5244
20795SOL     OW62562   0.805   6.236   8.106 -0.2030  0.4105 -0.1638
20795SOL    HW162563   0.884   6.178   8.089 -0.9972 -0.5725 -0.6164
20795SOL    HW262564   0.790   6.244   8.204  0.7215  1.0016 -0.0538
20796SOL     OW62565   7.685   3.972   5.528  0.4643  0.0764 -0.5894
20796SOL    HW162566   7.647   4.020   5.607  0.4126 -0.9100  0.0058
20796SOL    HW262567   7.777   4.007   5.508  0.4518  0.3745 -0.1242
20797SOL     OW62568   1.418   4.214   7.331 -0.1808  0.3053 -0.2662
20797SOL    HW162569   1.513   4.246   7.329 -0.5060  1.2612 -1.1924
20797SOL    HW262570   1.394   4.187   7.424  2.1269 -3.4924 -0.5330
20798SOL     OW62571   7.767   1.095   8.830 -0.0690 -0.3240  0.1531
20798SOL    HW162572   7.737   1.046   8.911  1.1826 -0.3121  0.6439
20798SOL    HW262573   7.710   1.069   8.752  0.0705 -1.9662  0.5638
20799SOL     OW62574   4.305   6.022   1.982 -0.1749 -0.3949  0.4323
20799SOL    HW162575   4.208   6.003   1.995 -0.7817  0.5487 -2.0685
20799SOL    HW262576   4.358   5.939   2.002 -1.5187 -1.0431  1.4396
20800SOL     OW62577   6.745   7.465   5.704  0.0890  0.0909  0.0884
20800SOL    HW162578   6.817   7.531   5.725  0.3947 -0.2564  0.1457
20800SOL    HW262579   6.771   7.410   5.625 -1.0533  1.3741 -1.2512
20801SOL     OW62580   1.091   3.961   0.117  0.3024  0.0312  0.4451
20801SOL    HW162581   1.166   3.939   0.054 -0.4163  2.3894 -1.3472
20801SOL    HW262582   1.026   3.885   0.119  1.6722 -1.1978  0.4705
20802SOL     OW62583   2.356   6.441   2.466  0.2283  0.1293  0.0559
20802SOL    HW162584   2.389   6.535   2.455  0.2496  0.2108  0.7794
20802SOL    HW262585   2.424   6.388   2.516  0.0292 -0.1626  0.0192
20803SOL     OW62586   7.736   8.737   4.959  0.2112 -0.4139  0.2590
20803SOL    HW162587   7.738   8.695   5.050  1.7429 -1.6791 -0.3052
20803SOL    HW262588   7.818   8.710   4.908 -1.1865 -0.7803 -1.9553
20804SOL     OW62589   6.393   2.374   5.546  0.0074  0.2180  0.1866
20804SOL    HW162590   6.376   2.275   5.543 -0.6993  0.3385 -0.0524
20804SOL    HW262591   6.351   2.412   5.628 -0.6941  0.4815 -0.2806
20805SOL     OW62592   6.168   5.554   3.626 -0.1371 -0.3241  0.0683
20805SOL    HW162593   6.247   5.513   3.671 -0.6280 -1.0081  0.3226
20805SOL    HW262594   6.147   5.642   3.667  2.4059  1.4317 -2.0222
20806SOL     OW62595   1.310   0.266   8.265  0.2469  0.5511 -0.2916
20806SOL    HW162596   1.359   0.337   8.315  1.5682 -0.7479  0.2841
20806SOL    HW262597   1.371   0.222   8.200 -0.5854 -0.0344 -0.7011
20807SOL     OW62598   2.278   4.034   2.964  0.1878 -0.1854 -0.0241
20807SOL    HW162599   2.323   4.117   2.932  0.0067  0.2039  0.7019
20807SOL    HW262600   2.325   3.954   2.927 -1.2284  0.1985 -2.9800
20808SOL     OW62601   3.198   6.785   7.496 -0.0294 -0.5261 -0.4062
20808SOL    HW162602   3.140   6.743   7.427  0.8504 -1.8964 -0.3419
20808SOL    HW262603   3.239   6.714   7.554  1.3199  0.4278 -0.1376
20809SOL     OW62604   5.162   4.287   0.497  0.1669 -0.3118 -0.4277
20809SOL    HW162605   5.236   4.337   0.542 -1.2692  0.5869  1.0436
20809SOL    HW262606   5.171   4.297   0.398  0.7388  1.7046 -0.2192
20810SOL     OW62607   4.400   8.745   1.238 -0.2937 -0.0863 -0.5710
20810SOL    HW162608   4.482   8.762   1.183 -0.3311  3.1265  0.2161
20810SOL    HW262609   4.337   8.686   1.186  1.2436 -0.2099 -2.3862
20811SOL     OW62610   3.258   1.935   1.092  0.1530 -0.3753  0.4725
20811SOL    HW162611   3.247   1.846   1.049 -0.1650  0.8985 -2.3209
20811SOL    HW262612   3.330   1.931   1.161  0.2499 -2.7182  0.2967
20812SOL     OW62613   2.728   5.121   5.434 -0.0397 -0.0013 -0.0818
20812SOL    HW162614   2.782   5.104   5.517  0.7708  1.2588 -0.3238
20812SOL    HW262615   2.789   5.149   5.360 -0.9095  0.2805 -0.7040
20813SOL     OW62616   4.564   5.530   1.075  0.4738 -0.0675  0.1727
20813SOL    HW162617   4.481   5.571   1.113 -0.0004 -0.0050 -0.8997
20813SOL    HW262618   4.621   5.602   1.035  0.3099 -0.2823 -0.4562
20814SOL     OW62619   5.950   2.558   5.947  0.1478  0.1570  0.2960
20814SOL    HW162620   5.944   2.656   5.968  0.4804  0.5245 -1.2145
20814SOL    HW262621   6.013   2.544   5.871 -0.2674 -1.1964  0.1769
20815SOL     OW62622   4.964   5.300   5.020 -0.5065  0.7466 -0.7551
20815SOL    HW162623   4.960   5.380   5.080  0.8139  0.9664 -0.9461
20815SOL    HW262624   5.054   5.294   4.978 -1.0017 -0.1467 -1.7166
20816SOL     OW62625   5.087   8.327   7.216  0.0422  0.3792  0.7165
20816SOL    HW162626   5.020   8.401   7.211  1.5367  1.6821 -2.0295
20816SOL    HW262627   5.124   8.322   7.309 -1.1640  2.0811  1.3293
20817SOL     OW62628   0.752   2.542   8.238  0.0023  0.5475  0.0890
20817SOL    HW162629   0.745   2.578   8.145 -0.6509  1.2336  0.3896
20817SOL    HW262630   0.672   2.485   8.257  0.7137 -0.5578 -0.1628
20818SOL     OW62631   0.367   4.776   5.238 -0.0414  0.1287  0.5478
20818SOL    HW162632   0.311   4.770   5.321  1.3242 -0.5994  1.4545
20818SOL    HW262633   0.314   4.746   5.159 -1.3817  0.8709  1.1429
20819SOL     OW62634   2.644   4.200   1.543  0.7548  0.7934  0.1849
20819SOL    HW162635   2.696   4.213   1.458 -1.6508  0.5498 -1.4337
20819SOL    HW262636   2.634   4.289   1.589  3.2352  0.7193  1.0342
20820SOL     OW62637   0.703   1.217   5.232  0.9907 -0.3069  0.0557
20820SOL    HW162638   0.630   1.208   5.300  0.7564 -0.4872 -0.2204
20820SOL    HW262639   0.739   1.310   5.235 -0.0724  0.1421 -0.6444
20821SOL     OW62640   1.505   4.945   5.651 -0.3840  0.6154  0.3222
20821SOL    HW162641   1.550   4.869   5.605 -0.3864  1.1180 -0.5210
20821SOL    HW262642   1.412   4.956   5.616  0.0784  1.8692 -0.5922
20822SOL     OW62643   0.241   4.218   5.714 -0.3585  0.0688 -0.0939
20822SOL    HW162644   0.310   4.258   5.654  0.6365 -0.7331  0.4810
20822SOL    HW262645   0.152   4.258   5.693 -0.3413 -1.1668 -3.0984
20823SOL     OW62646   4.701   3.198   2.451 -0.1226 -0.0178 -0.2649
20823SOL    HW162647   4.650   3.167   2.531 -0.6168  1.0494 -0.1466
20823SOL    HW262648   4.794   3.162   2.455 -0.7844 -1.8433 -0.3942
20824SOL     OW62649   7.779   1.736   1.402  0.5183 -0.1464 -0.5726
20824SOL    HW162650   7.857   1.700   1.351  0.4584  1.4311 -1.8554
20824SOL    HW262651   7.811   1.799   1.473  0.4521  0.2497 -0.8867
20825SOL     OW62652   5.237   3.446   5.514 -0.1395  0.4089  0.2664
20825SOL    HW162653   5.255   3.363   5.566  3.2576  0.1687 -1.0205
20825SOL    HW262654   5.200   3.421   5.424  0.3045  0.3181  0.1064
20826SOL     OW62655   1.181   5.813   2.735  0.3442  0.8611 -0.2697
20826SOL    HW162656   1.160   5.722   2.698 -1.6916  1.1038  0.1473
20826SOL    HW262657   1.177   5.880   2.660 -0.3710  0.8821 -0.2268
20827SOL     OW62658   6.750   6.247   6.525 -0.4063 -0.5114  1.0335
20827SOL    HW162659   6.744   6.251   6.625 -0.0157 -1.9643  1.1297
20827SOL    HW262660   6.821   6.182   6.498 -0.4265 -0.0490 -0.1972
20828SOL     OW62661   1.718   1.649   5.454  0.4584  0.1872 -0.4658
20828SOL    HW162662   1.789   1.583   5.479  0.6899  0.3168 -0.7660
20828SOL    HW262663   1.756   1.715   5.389  0.6441  1.4804  0.8992
20829SOL     OW62664   8.485   1.793   7.098  0.5688 -0.7803 -0.1116
20829SOL    HW162665   8.478   1.714   7.038 -1.6790 -1.1872  0.5817
20829SOL    HW262666   8.580   1.823   7.104  1.8221 -4.5143  1.0260
20830SOL     OW62667   2.878   5.077   4.633 -0.4007  0.0738  0.0082
20830SOL    HW162668   2.816   5.155   4.629 -0.1717  0.4584  2.4355
20830SOL    HW262669   2.955   5.099   4.693  0.4047 -1.5441 -0.3745
20831SOL     OW62670   4.897   2.399   7.373 -0.3247  0.7919 -0.6891
20831SOL    HW162671   4.952   2.456   7.434 -1.0213  0.0375  0.6948
20831SOL    HW262672   4.846   2.331   7.427  0.1215 -0.8577 -2.2335
20832SOL     OW62673   1.181   0.575   0.887  0.2160  0.1295 -0.4927
20832SOL    HW162674   1.228   0.574   0.975 -1.7024  0.8326  0.5996
20832SOL    HW262675   1.123   0.494   0.879 -0.5358  0.6591 -0.5492
20833SOL     OW62676   6.493   5.719   0.366 -0.2409  0.0807  0.3358
20833SOL    HW162677   6.512   5.735   0.463 -1.6374 -1.0842  0.8485
20833SOL    HW262678   6.438   5.793   0.330  1.9865  1.5873 -0.1772
20834SOL     OW62679   8.323   3.804   4.054 -0.5246  0.0557 -0.3324
20834SOL    HW162680   8.316   3.903   4.045  0.2167  0.2336  0.8439
20834SOL    HW262681   8.232   3.763   4.052 -0.8717  0.8234 -0.1961
20835SOL     OW62682   0.456   2.549   8.267 -0.5192  0.4971 -0.5765
20835SOL    HW162683   0.426   2.576   8.175 -0.1502 -0.3785 -0.9755
20835SOL    HW262684   0.383   2.496   8.311 -0.3878  0.2067 -0.7007
20836SOL     OW62685   7.495   5.887   6.333  0.5403  0.8269  0.0807
20836SOL    HW162686   7.464   5.901   6.239  0.2183  1.6075  0.2985
20836SOL    HW262687   7.595   5.874   6.334  0.2822 -1.8841 -0.6417
20837SOL     OW62688   8.425   8.561   3.726  0.4432  0.7786 -0.1565
20837SOL    HW162689   8.480   8.494   3.775  1.0701  2.0947  1.0268
20837SOL    HW262690   8.364   8.515   3.662 -0.1103 -1.0134  1.5751
20838SOL     OW62691   7.151   4.743   5.572 -0.6730  0.0473 -0.8097
20838SOL    HW162692   7.244   4.736   5.609 -0.4447  1.5755 -1.0061
20838SOL    HW262693   7.086   4.706   5.638  0.0019 -0.3181 -0.3299
20839SOL     OW62694   2.054   4.663   6.613  0.5384 -0.3083 -0.0334
20839SOL    HW162695   2.074   4.631   6.706  0.4098 -2.0921 -0.5786
20839SOL    HW262696   2.063   4.586   6.550 -0.1260  0.7151 -1.4005
20840SOL     OW62697   8.073   8.467   1.246  0.2790  0.1222 -0.2255
20840SOL    HW162698   8.002   8.451   1.178 -1.5538  1.0485  1.3497
20840SOL    HW262699   8.160   8.487   1.200 -0.6335 -0.3095 -2.2387
20841SOL     OW62700   8.485   0.912   4.078 -0.3090  0.3289 -0.1434
20841SOL    HW162701   8.449   0.837   4.023 -1.6320  0.4284  0.5613
20841SOL    HW262702   8.413   0.980   4.094  0.2134  0.5964  1.1967
20842SOL     OW62703   5.669   5.371   3.345 -0.3647 -0.3786  0.0513
20842SOL    HW162704   5.650   5.279   3.312  0.4785 -1.3061  2.0168
20842SOL    HW262705   5.658   5.374   3.444 -0.3582  1.6448  0.0352
20843SOL     OW62706   4.015   5.180   4.379  0.1679 -0.3063  0.2959
20843SOL    HW162707   4.103   5.141   4.353 -0.0036  0.6573 -1.9832
20843SOL    HW262708   3.995   5.259   4.320 -1.6971  0.2004  1.5231
20844SOL     OW62709   6.358   5.519   2.457 -0.0046  0.1989 -0.4352
20844SOL    HW162710   6.363   5.602   2.401 -0.6038 -0.4175 -1.4358
20844SOL    HW262711   6.285   5.529   2.525 -0.0233  0.5179 -0.5001
20845SOL     OW62712   6.310   8.063   2.261  0.5258  0.1841 -0.3452
20845SOL    HW162713   6.361   7.980   2.238  1.2953  1.0957 -2.1410
20845SOL    HW262714   6.327   8.087   2.357  2.7472 -0.0660 -0.6319
20846SOL     OW62715   2.391   1.937   5.204 -0.0238  0.1482  1.0293
20846SOL    HW162716   2.407   1.839   5.216 -1.2960 -0.0647  1.1032
20846SOL    HW262717   2.380   1.980   5.293 -1.7211 -0.0644  0.9589
20847SOL     OW62718   5.260   6.687   7.681  0.1132 -0.2175 -0.4919
20847SOL    HW162719   5.285   6.778   7.715 -1.6046 -0.0782  0.5442
20847SOL    HW262720   5.295   6.675   7.588 -0.3604  1.8686 -1.0056
20848SOL     OW62721   0.704   7.922   8.821 -0.3909  0.2095 -0.0384
20848SOL    HW162722   0.654   7.839   8.842  1.5799 -1.6815 -2.1995
20848SOL    HW262723   0.784   7.929   8.881 -0.8118  0.8508  0.4639
20849SOL     OW62724   6.748   5.347   5.806  0.2692 -0.0875 -0.0987
20849SOL    HW162725   6.777   5.434   5.846 -0.1888  0.2353 -0.4488
20849SOL    HW262726   6.786   5.339   5.714  0.6407 -0.4440  0.0864
20850SOL     OW62727   5.270   7.434   6.747  0.1546  0.0033 -0.5335
20850SOL    HW162728   5.304   7.520   6.785  1.3054  0.4258 -2.3586
20850SOL    HW262729   5.259   7.367   6.820  2.5369  0.6416  0.5264
20851SOL     OW62730   4.636   6.111   0.532  0.1610  0.1420 -0.0366
20851SOL    HW162731   4.681   6.054   0.463 -2.2534 -0.8222 -0.9369
20851SOL    HW262732   4.561   6.162   0.490  0.4420  1.7906  1.3536
20852SOL     OW62733   5.847   2.304   4.206  0.3180 -0.1688 -0.2669
20852SOL    HW162734   5.761   2.342   4.171  0.1524 -0.1083  0.1894
20852SOL    HW262735   5.920   2.318   4.139  1.1954  4.3698  1.2638
20853SOL     OW62736   6.022   0.777   7.035  0.0987 -0.7233 -0.1993
20853SOL    HW162737   6.048   0.710   7.105 -1.2269  0.2797  1.3285
20853SOL    HW262738   5.926   0.802   7.047  0.4512  1.1437 -0.9577
20854SOL     OW62739   5.551   8.515   2.294 -0.8688 -0.5883 -0.5366
20854SOL    HW162740   5.466   8.538   2.341 -1.4855 -3.2286 -0.2055
20854SOL    HW262741   5.559   8.569   2.210 -2.4333  0.3262 -0.1312
20855SOL     OW62742   3.151   0.001   4.515 -0.5674  0.3275 -0.1604
20855SOL    HW162743   3.242   0.037   4.536 -0.5069 -0.6327  1.3623
20855SOL    HW262744   3.081   0.060   4.555 -0.5204 -0.2416  0.7910
20856SOL     OW62745   0.277   5.557   0.238  0.1358 -0.2620 -0.2633
20856SOL    HW162746   0.198   5.554   0.178 -0.3992 -0.5125  0.4441
20856SOL    HW262747   0.302   5.464   0.267  2.4127 -0.5118 -2.6680
20857SOL     OW62748   2.540   3.256   8.227  0.4763  0.2659 -0.1895
20857SOL    HW162749   2.561   3.273   8.324  0.0509  1.3642 -0.2780
20857SOL    HW262750   2.592   3.319   8.170  0.6379 -0.3011 -0.6817
20858SOL     OW62751   2.419   7.352   5.813  0.1830 -0.4228  0.2533
20858SOL    HW162752   2.504   7.302   5.800  0.0511 -0.4409 -0.5863
20858SOL    HW262753   2.354   7.327   5.741 -0.9689 -1.3061  1.5437
20859SOL     OW62754   6.836   3.088   5.525 -0.2680  0.3043 -0.1744
20859SOL    HW162755   6.796   3.031   5.597  2.2891  0.4446  1.4733
20859SOL    HW262756   6.880   3.029   5.457 -0.1447  0.2336 -0.0352
20860SOL     OW62757   4.424   4.905   0.313  0.0650 -0.6868 -0.3067
20860SOL    HW162758   4.351   4.882   0.248 -0.3682 -1.1010  0.3152
20860SOL    HW262759   4.465   4.821   0.349  0.1269 -0.4679  0.1462
20861SOL     OW62760   7.679   8.274   2.325 -0.4938 -0.1371  0.2279
20861SOL    HW162761   7.582   8.294   2.322 -0.6306 -0.7615  0.4719
20861SOL    HW262762   7.694   8.176   2.316  0.0247 -0.2372  1.9033
20862SOL     OW62763   5.591   5.999   0.432 -0.8521 -0.0662 -0.1759
20862SOL    HW162764   5.589   6.088   0.478  0.3630 -0.5787  0.9302
20862SOL    HW262765   5.540   5.933   0.487 -1.3193 -0.1836 -0.7421
20863SOL     OW62766   8.573   2.748   3.473 -0.1756  0.0111  0.2727
20863SOL    HW162767   8.629   2.818   3.518 -0.0064  0.5513 -0.7515
20863SOL    HW262768   8.514   2.705   3.541 -0.5674  1.4161  0.8724
20864SOL     OW62769   1.588   3.264   5.008  0.3204  0.1896 -0.5242
20864SOL    HW162770   1.544   3.322   4.939 -0.9880  0.4398  0.4829
20864SOL    HW262771   1.687   3.280   5.007  0.1789  1.0928 -1.5011
20865SOL     OW62772   3.303   1.681   0.964  0.6244 -0.0951 -0.6258
20865SOL    HW162773   3.400   1.666   0.981  0.7228  2.0221  1.1549
20865SOL    HW262774   3.290   1.720   0.873  1.5807  0.7589 -0.4034
20866SOL     OW62775   1.696   0.299   4.079 -0.6805  0.4834  0.1243
20866SOL    HW162776   1.734   0.388   4.107  0.2096  0.5293 -1.1178
20866SOL    HW262777   1.663   0.306   3.985 -0.0355 -0.6495 -0.2026
20867SOL     OW62778   2.158   3.369   4.643  0.0974 -0.0407 -0.4179
20867SOL    HW162779   2.154   3.362   4.543 -1.4409  0.9919 -0.4612
20867SOL    HW262780   2.242   3.415   4.670  0.1854  0.3247 -1.2772
20868SOL     OW62781   3.179   4.092   7.847  0.4382 -0.3236 -0.0337
20868SOL    HW162782   3.195   4.130   7.756  2.1774 -1.1905 -0.1196
20868SOL    HW262783   3.258   4.108   7.906 -1.4686  2.1959  2.1135
20869SOL     OW62784   0.121   1.533   6.532  0.7178  0.1306 -0.1949
20869SOL    HW162785   0.137   1.435   6.548  0.9186  0.2733  0.5313
20869SOL    HW262786   0.075   1.572   6.611  0.4688  0.5886 -0.5622
20870SOL     OW62787   7.655   5.418   3.708 -0.4939 -0.2422 -0.2479
20870SOL    HW162788   7.751   5.419   3.679 -0.1392  0.2763  0.8678
20870SOL    HW262789   7.650   5.379   3.800 -1.0202  2.0057  0.7426
20871SOL     OW62790   4.637   4.130   7.179  0.2889 -0.1414 -0.5848
20871SOL    HW162791   4.691   4.184   7.115  1.3598 -0.2917  0.1535
20871SOL    HW262792   4.632   4.035   7.147 -0.0959  0.0135 -0.9886
20872SOL     OW62793   8.538   4.553   1.626  0.0269 -0.1505 -0.3265
20872SOL    HW162794   8.440   4.569   1.638 -0.1192 -0.7963 -0.6214
20872SOL    HW262795   8.573   4.499   1.703  0.0395 -0.3786 -0.4920
20873SOL     OW62796   7.879   0.310   0.193 -0.0244 -0.0170 -0.0366
20873SOL    HW162797   7.937   0.233   0.167  0.9235  1.0144 -1.0755
20873SOL    HW262798   7.901   0.337   0.287 -1.6061 -2.0757  1.0153
20874SOL     OW62799   5.484   3.856   2.391  0.3577  0.3270  0.0636
20874SOL    HW162800   5.465   3.939   2.338 -1.2970 -0.8201 -1.2407
20874SOL    HW262801   5.556   3.803   2.347 -0.6900 -0.3928 -0.8246
20875SOL     OW62802   1.824   8.098   4.922 -0.0635 -0.0503 -0.1105
20875SOL    HW162803   1.807   8.082   4.825 -2.9237  0.1180  0.2720
20875SOL    HW262804   1.895   8.168   4.932  0.6678 -0.4420 -2.0439
20876SOL     OW62805   5.166   5.160   5.274  0.0845  0.1247  0.2007
20876SOL    HW162806   5.162   5.146   5.372  0.8849  0.6581  0.3206
20876SOL    HW262807   5.184   5.257   5.255 -0.1959  0.0491 -0.4663
20877SOL     OW62808   5.648   0.990   1.711  0.1034  0.7383  0.4137
20877SOL    HW162809   5.564   0.937   1.722  0.6399 -0.5299 -1.2245
20877SOL    HW262810   5.638   1.053   1.634  1.1155 -0.4325 -0.7076
20878SOL     OW62811   5.847   1.924   8.480 -0.5425  0.3948  0.6106
20878SOL    HW162812   5.881   1.910   8.573 -0.9570 -0.3344  0.6631
20878SOL    HW262813   5.750   1.950   8.484 -0.6922 -0.1050  0.3764
20879SOL     OW62814   2.183   5.218   3.336 -0.4359  0.0882  0.3366
20879SOL    HW162815   2.211   5.264   3.251 -0.4283 -2.1244 -0.9355
20879SOL    HW262816   2.083   5.209   3.338 -0.3276 -1.8262 -0.5967
20880SOL     OW62817   0.070   0.742   5.656  0.5276 -0.1786  0.4430
20880SOL    HW162818  -0.001   0.793   5.608  0.5511  0.2658  0.8718
20880SOL    HW262819   0.157   0.752   5.607  0.3323 -0.5970  0.0030
20881SOL     OW62820   0.050   4.536   7.419  0.5731 -0.1610  0.4182
20881SOL    HW162821   0.086   4.623   7.452  1.0564 -0.4347  0.6200
20881SOL    HW262822   0.105   4.461   7.456 -0.8343 -0.6647  1.6281
20882SOL     OW62823   8.284   4.848   6.921  0.0378 -0.5910 -0.0431
20882SOL    HW162824   8.254   4.797   7.001  1.7464 -1.4193  0.1175
20882SOL    HW262825   8.377   4.882   6.936  1.0567 -2.1739 -2.2724
20883SOL     OW62826   8.435   3.987   6.330 -0.2534 -0.1446  0.5537
20883SOL    HW162827   8.392   4.077   6.333 -0.4142 -0.1102 -1.5011
20883SOL    HW262828   8.495   3.977   6.410 -0.2968  1.7284  0.8805
20884SOL     OW62829   3.785   5.543   8.674 -0.3428 -0.2736 -0.0596
20884SOL    HW162830   3.840   5.468   8.636 -0.4488 -0.7590  0.7137
20884SOL    HW262831   3.805   5.627   8.625  0.6099 -0.5780 -0.2193
20885SOL     OW62832   5.725   6.546   8.296  0.0862 -0.3579  0.0917
20885SOL    HW162833   5.794   6.545   8.224 -0.4334  0.8289 -0.4595
20885SOL    HW262834   5.635   6.566   8.255 -0.0819  1.2145  1.1547
20886SOL     OW62835   7.062   1.344   3.774 -0.3880 -0.5121 -0.4227
20886SOL    HW162836   7.151   1.376   3.809 -0.3658 -0.4155 -0.5688
20886SOL    HW262837   7.053   1.370   3.678 -1.6134  1.6485  0.2193
20887SOL     OW62838   6.930   7.207   1.615  0.2401 -0.3919 -0.1175
20887SOL    HW162839   6.935   7.299   1.575 -0.1466 -0.6565 -0.7783
20887SOL    HW262840   6.838   7.170   1.603  0.5854 -1.1415 -0.4661
20888SOL     OW62841   0.421   7.292   3.194 -0.0247  0.2997  0.8645
20888SOL    HW162842   0.419   7.381   3.147 -0.7330 -0.4320 -0.5333
20888SOL    HW262843   0.426   7.307   3.292 -1.2750  1.9060  0.7227
20889SOL     OW62844   6.211   5.367   0.662 -0.4376 -0.1991  0.0745
20889SOL    HW162845   6.304   5.403   0.666  0.6403 -2.7874 -0.3510
20889SOL    HW262846   6.166   5.400   0.578  0.7885 -0.5131 -0.7200
20890SOL     OW62847   1.521   7.433   6.490 -0.2035 -0.2206  0.5174
20890SOL    HW162848   1.471   7.361   6.538  1.5243 -1.4397  0.6100
20890SOL    HW262849   1.602   7.459   6.544  1.1112 -0.7414 -1.1087
20891SOL     OW62850   1.983   0.509   6.648  0.5778  0.8237  0.0484
20891SOL    HW162851   2.057   0.461   6.694  0.5422  0.1952 -0.5449
20891SOL    HW262852   1.942   0.450   6.579  0.1223  1.4889 -0.2622
20892SOL     OW62853   7.237   6.236   1.407 -0.4268 -0.3463  0.0863
20892SOL    HW162854   7.147   6.234   1.451  0.2458  0.1404  1.5269
20892SOL    HW262855   7.297   6.170   1.451  0.0748 -0.3011 -0.5250
20893SOL     OW62856   0.879   4.681   1.472 -0.3434 -0.3618  0.3563
20893SOL    HW162857   0.940   4.678   1.551  0.2101 -0.3669 -0.0648
20893SOL    HW262858   0.856   4.777   1.453  1.5364 -0.1051 -0.9708
20894SOL     OW62859   6.856   0.276   3.683 -0.2547 -0.1221  0.0142
20894SOL    HW162860   6.876   0.250   3.588 -0.0050  0.7760 -0.1881
20894SOL    HW262861   6.912   0.222   3.745 -1.2439 -1.5521 -0.2782
20895SOL     OW62862   4.302   7.830   2.191 -0.0248  0.2233 -0.3651
20895SOL    HW162863   4.213   7.786   2.177  0.1237  0.1273 -1.0631
20895SOL    HW262864   4.305   7.871   2.282 -0.6592 -0.0586 -0.2083
20896SOL     OW62865   6.374   0.428   4.218 -0.2259  0.1303 -0.0832
20896SOL    HW162866   6.315   0.355   4.253  1.2146 -1.6458 -1.2018
20896SOL    HW262867   6.357   0.441   4.120 -0.3315  1.1943  0.0607
20897SOL     OW62868   8.340   6.148   5.058 -0.2004  0.2353  0.1412
20897SOL    HW162869   8.437   6.142   5.038 -0.7267  0.4361 -2.9538
20897SOL    HW262870   8.317   6.242   5.086  0.4677  0.1505  1.0146
20898SOL     OW62871   2.527   7.772   6.097  0.2114  0.5239 -0.2733
20898SOL    HW162872   2.459   7.820   6.041  1.2590  1.2275 -0.9835
20898SOL    HW262873   2.587   7.840   6.141 -1.2246  0.0899  2.6479
20899SOL     OW62874   6.123   3.656   3.728 -0.1220 -0.5044  0.1085
20899SOL    HW162875   6.159   3.703   3.647 -1.0505 -0.1145 -0.0876
20899SOL    HW262876   6.184   3.581   3.753 -0.5411 -1.5035 -1.7641
20900SOL     OW62877   0.014   1.645   4.820  0.2672  0.4247  0.0925
20900SOL    HW162878   0.113   1.632   4.816  0.2780 -0.3076  1.9748
20900SOL    HW262879  -0.030   1.561   4.852 -0.8266  1.1688  0.6054
20901SOL     OW62880   5.283   0.306   6.755 -0.2663 -0.3767  0.1879
20901SOL    HW162881   5.348   0.380   6.738 -1.0976 -0.1354 -2.2395
20901SOL    HW262882   5.227   0.329   6.835 -1.6697  2.5259 -1.4555
20902SOL     OW62883   7.182   5.981   4.947 -0.5731 -0.1823 -0.5407
20902SOL    HW162884   7.108   6.020   4.891  0.5648  1.7779 -0.7708
20902SOL    HW262885   7.219   5.900   4.901 -0.7565  0.4431 -1.8417
20903SOL     OW62886   5.138   2.049   0.572 -0.2570 -0.3781 -0.5212
20903SOL    HW162887   5.046   2.084   0.591 -0.9044 -0.1870 -3.4793
20903SOL    HW262888   5.130   1.960   0.527  0.9724 -0.1672 -1.1819
20904SOL     OW62889   5.097   5.698   6.866  0.1294  0.1929  0.3080
20904SOL    HW162890   5.003   5.728   6.853  0.3474  0.1505 -1.5989
20904SOL    HW262891   5.153   5.774   6.900 -0.4387  0.3927  0.8055
20905SOL     OW62892   3.622   6.983   8.740  0.3246 -0.7854 -0.0850
20905SOL    HW162893   3.532   6.974   8.782  0.3715 -1.0898 -0.0480
20905SOL    HW262894   3.689   7.007   8.810  0.1474  0.1937 -0.2326
20906SOL     OW62895   8.296   1.635   6.598  0.0531 -0.1637 -0.0773
20906SOL    HW162896   8.290   1.703   6.525 -0.8108  1.1400  1.1474
20906SOL    HW262897   8.391   1.605   6.607  0.3565  0.4352 -1.0289
20907SOL     OW62898   5.886   6.531   5.996 -0.2469 -0.7464  0.7988
20907SOL    HW162899   5.985   6.534   5.979 -0.1266 -0.7439  1.4667
20907SOL    HW262900   5.864   6.592   6.072 -0.8010 -0.5706  0.5000
20908SOL     OW62901   7.693   8.649   8.105  0.0943 -0.4965  0.2324
20908SOL    HW162902   7.788   8.634   8.132 -0.3593 -1.2733  1.4923
20908SOL    HW262903   7.663   8.573   8.047 -0.0314 -0.7438  0.6162
20909SOL     OW62904   6.203   3.318   6.566 -0.0690  0.3868  0.2322
20909SOL    HW162905   6.272   3.330   6.494 -0.3488  1.1993  0.0968
20909SOL    HW262906   6.173   3.222   6.567 -1.7265  0.7923 -2.2527
20910SOL     OW62907   1.958   2.448   6.997  0.1287  1.0103 -0.2287
20910SOL    HW162908   2.058   2.444   6.995  0.1123  0.8320 -0.6583
20910SOL    HW262909   1.921   2.356   6.989 -0.0246  0.6208  3.3445
20911SOL     OW62910   2.242   5.331   0.034  0.1659  0.2992 -0.1390
20911SOL    HW162911   2.246   5.431   0.038 -0.9268  0.4140 -1.3667
20911SOL    HW262912   2.285   5.293   0.116  1.3878  1.7452 -0.0734
20912SOL     OW62913   3.598   1.171   7.315  0.1146  0.2826 -0.0388
20912SOL    HW162914   3.499   1.168   7.301  0.1541 -1.3208 -0.2033
20912SOL    HW262915   3.622   1.119   7.396  0.7734  1.3813  0.5002
20913SOL     OW62916   7.382   1.598   1.192 -0.3934  0.1010 -0.5744
20913SOL    HW162917   7.288   1.612   1.224  0.6014  0.1169  2.6977
20913SOL    HW262918   7.404   1.666   1.122 -2.8998 -0.2204 -1.7935
20914SOL     OW62919   4.083   4.130   5.366 -0.4454 -0.4443 -0.3611
20914SOL    HW162920   4.128   4.214   5.336 -1.7586  0.1637 -0.7042
20914SOL    HW262921   4.071   4.069   5.287 -0.9089 -0.2733 -0.4247
20915SOL     OW62922   2.026   3.588   4.013 -0.4719 -0.2194 -0.0758
20915SOL    HW162923   2.107   3.540   4.048 -0.2340 -0.2407 -0.6365
20915SOL    HW262924   2.033   3.596   3.913 -1.6418 -1.1235 -0.2594
20916SOL     OW62925   6.010   4.374   6.005 -0.3524  0.0957 -0.1951
20916SOL    HW162926   6.016   4.452   5.943 -0.7705  1.3366  1.2594
20916SOL    HW262927   5.916   4.339   6.007 -0.1813 -0.4147 -0.7905
20917SOL     OW62928   6.455   1.427   7.288 -0.0533 -0.4438 -0.3933
20917SOL    HW162929   6.457   1.396   7.383  1.8449  0.0719 -0.2232
20917SOL    HW262930   6.406   1.514   7.282  0.0593 -0.3405  0.1536
20918SOL     OW62931   5.791   7.905   4.045 -0.3958  1.0018 -0.0708
20918SOL    HW162932   5.744   7.984   4.007  0.6737  1.4424 -0.5226
20918SOL    HW262933   5.815   7.923   4.141 -0.7015  0.9821  0.0077
20919SOL     OW62934   8.574   1.179   1.143 -0.4695  0.1241 -0.2637
20919SOL    HW162935   8.664   1.195   1.104  0.8036 -0.9475  2.0298
20919SOL    HW262936   8.504   1.203   1.076  1.4618  1.8213 -1.8170
20920SOL     OW62937   2.212   0.520   0.436 -0.0653 -0.0217  0.0489
20920SOL    HW162938   2.139   0.564   0.488  0.4887  0.9996  0.0077
20920SOL    HW262939   2.300   0.557   0.466  0.3161  0.0282 -1.0876
20921SOL     OW62940   3.920   8.148   8.337 -0.2117  0.0073 -0.2690
20921SOL    HW162941   3.926   8.062   8.389  1.3294  0.0870 -0.2732
20921SOL    HW262942   3.879   8.130   8.248 -0.9407 -0.5084  0.1536
20922SOL     OW62943   7.487   1.175   1.488  0.1962  0.0012  0.0529
20922SOL    HW162944   7.580   1.211   1.482 -0.1446  1.2252  1.3570
20922SOL    HW262945   7.426   1.232   1.434 -0.0222  0.1589  0.4574
20923SOL     OW62946   2.463   8.499   4.568 -0.2100  0.5057 -0.2818
20923SOL    HW162947   2.539   8.504   4.633  0.0590  1.0492 -0.6380
20923SOL    HW262948   2.414   8.586   4.567  0.0663  0.6609 -1.1376
20924SOL     OW62949   0.996   2.242   7.056  0.5416 -0.3434 -0.5116
20924SOL    HW162950   1.071   2.242   6.989  1.1458  0.9697  0.1168
20924SOL    HW262951   1.026   2.291   7.138 -1.0126  0.2203 -0.2609
20925SOL     OW62952   5.860   4.604   2.925  0.2675 -0.0184 -0.4071
20925SOL    HW162953   5.801   4.608   3.005 -1.2620  1.1412 -1.5219
20925SOL    HW262954   5.948   4.564   2.950 -1.1282 -2.2925  1.2060
20926SOL     OW62955   4.511   6.791   4.272  0.3658 -0.4573  0.5020
20926SOL    HW162956   4.461   6.778   4.186  2.5378  0.1244 -0.9224
20926SOL    HW262957   4.461   6.745   4.346 -1.3095 -1.4407 -1.1303
20927SOL     OW62958   2.075   8.012   6.734  0.1938  0.2548  0.0832
20927SOL    HW162959   2.072   8.037   6.831 -1.2576  0.2758  0.0583
20927SOL    HW262960   1.985   7.980   6.705  0.7477 -0.2747 -1.1360
20928SOL     OW62961   3.489   6.536   5.021 -0.2694 -0.3537 -0.2590
20928SOL    HW162962   3.552   6.564   5.093 -0.7321  0.9050 -0.3102
20928SOL    HW262963   3.458   6.442   5.038  0.2776 -0.3711  0.7052
20929SOL     OW62964   5.650   4.036   3.404  0.1545  0.3636 -0.4653
20929SOL    HW162965   5.746   4.020   3.382 -0.6269 -2.3071 -2.3630
20929SOL    HW262966   5.644   4.108   3.473  3.6174 -0.8022  1.3144
20930SOL     OW62967   7.770   5.906   6.401 -0.0193 -0.2875 -0.1075
20930SOL    HW162968   7.866   5.931   6.407 -0.1735  0.3713 -0.3285
20930SOL    HW262969   7.751   5.832   6.466  1.0532 -1.7822 -1.4288
20931SOL     OW62970   6.129   4.717   0.912  0.1962 -0.3438 -0.0950
20931SOL    HW162971   6.188   4.791   0.945 -0.0401  0.2425 -0.9632
20931SOL    HW262972   6.181   4.658   0.850 -0.2595  0.5105 -1.3258
20932SOL     OW62973   5.377   3.619   7.793 -0.1651  0.2296 -0.2417
20932SOL    HW162974   5.341   3.547   7.734  1.1126 -2.1726  1.7627
20932SOL    HW262975   5.467   3.647   7.761 -0.2104  0.2100 -0.3904
20933SOL     OW62976   0.674   0.200   4.047 -0.6300 -0.0562 -0.3228
20933SOL    HW162977   0.677   0.186   4.146 -0.0188 -0.3664 -0.3848
20933SOL    HW262978   0.749   0.260   4.018 -0.0627 -0.9437 -0.7486
20934SOL     OW62979   2.327   7.623   7.414  0.2344 -1.1819  0.0524
20934SOL    HW162980   2.388   7.644   7.338 -1.4213 -0.3466 -1.0833
20934SOL    HW262981   2.349   7.531   7.449  1.6228 -1.2049 -0.7897
20935SOL     OW62982   4.868   8.703   6.864 -0.4922  0.3906 -0.0355
20935SOL    HW162983   4.832   8.726   6.774  0.7850  1.2247 -0.3658
20935SOL    HW262984   4.968   8.713   6.863 -0.0509 -2.9287  0.4906
20936SOL     OW62985   0.705   2.842   3.191 -0.1767  0.1580 -0.3335
20936SOL    HW162986   0.635   2.809   3.254 -0.2667  0.8901 -0.0360
20936SOL    HW262987   0.778   2.886   3.243  1.4326 -2.1927 -0.4939
20937SOL     OW62988   7.595   0.205   2.287  0.3136 -0.3217  0.3481
20937SOL    HW162989   7.518   0.202   2.351 -0.6161 -0.2066 -0.7400
20937SOL    HW262990   7.653   0.125   2.301  0.3291 -0.1156  1.5722
20938SOL     OW62991   4.015   6.774   1.086 -0.7103  0.1400 -0.2065
20938SOL    HW162992   4.078   6.743   1.156  1.6152  1.0782 -1.7421
20938SOL    HW262993   3.933   6.717   1.086 -0.3295 -0.5231  2.5120
20939SOL     OW62994   8.256   7.640   5.231 -0.0483  0.4544  0.5137
20939SOL    HW162995   8.217   7.716   5.179  0.7871 -0.4692 -1.6180
20939SOL    HW262996   8.189   7.566   5.238 -0.1820  0.6028  0.8040
20940SOL     OW62997   2.530   1.473   8.479  0.3764 -0.1720 -0.5221
20940SOL    HW162998   2.515   1.418   8.396 -0.8469  0.7146 -0.9321
20940SOL    HW262999   2.529   1.570   8.454  0.3524  0.0931  0.4934
20941SOL     OW63000   0.373   0.347   5.493  0.6804 -0.6547  0.2908
20941SOL    HW163001   0.316   0.392   5.561  0.0283 -2.4485  0.9924
20941SOL    HW263002   0.433   0.415   5.450 -2.1880  1.4234 -0.7916
20942SOL     OW63003   5.836   6.804   3.518  0.0555 -0.2121 -0.2341
20942SOL    HW163004   5.810   6.880   3.457  0.1032 -0.4110 -0.5049
20942SOL    HW263005   5.810   6.827   3.612 -0.6481 -0.1879 -0.4252
20943SOL     OW63006   3.056   7.932   1.550 -0.2781 -0.7414 -0.4378
20943SOL    HW163007   3.030   7.841   1.518  1.9225 -1.6185  0.0643
20943SOL    HW263008   3.099   7.924   1.640 -2.7923  1.1949  1.0385
20944SOL     OW63009   3.976   6.191   7.528  0.0415  0.0563 -0.1494
20944SOL    HW163010   4.074   6.184   7.547  0.1743  1.5557 -0.2131
20944SOL    HW263011   3.925   6.174   7.612  0.4567  1.7210  0.4691
20945SOL     OW63012   4.990   0.075   4.172  0.4368 -0.0856 -0.7316
20945SOL    HW163013   4.909   0.134   4.169 -0.1747 -0.8533  0.0126
20945SOL    HW263014   5.072   0.130   4.180 -0.1945  0.6376  1.0686
20946SOL     OW63015   7.773   3.553   0.878 -0.3021 -0.4254 -0.0133
20946SOL    HW163016   7.785   3.649   0.902  0.1298 -0.5900  0.4349
20946SOL    HW263017   7.677   3.528   0.888 -0.5227  0.1151 -0.7217
20947SOL     OW63018   8.459   3.965   7.410 -0.4759  0.1550 -0.2568
20947SOL    HW163019   8.419   3.914   7.334  2.5637 -0.6473 -1.4808
20947SOL    HW263020   8.418   4.055   7.415 -2.2335 -0.5206 -1.4878
20948SOL     OW63021   6.938   2.209   2.910  0.0048  0.1311 -0.0119
20948SOL    HW163022   6.911   2.273   2.982 -4.7599 -1.3777 -0.0802
20948SOL    HW263023   6.902   2.241   2.822  1.2999 -0.5762 -0.8302
20949SOL     OW63024   5.513   5.786   4.392  0.0219 -0.3006  0.2159
20949SOL    HW163025   5.447   5.715   4.417  1.3550 -0.9786  1.9779
20949SOL    HW263026   5.550   5.828   4.475  2.0634 -0.1985 -0.6911
20950SOL     OW63027   7.640   7.625   1.631 -0.3953  0.0460  0.1302
20950SOL    HW163028   7.580   7.546   1.639 -0.0994 -0.1849  0.1076
20950SOL    HW263029   7.729   7.604   1.672 -0.4742  0.5378  0.5718
20951SOL     OW63030   4.535   0.958   7.548  0.1505 -0.1759 -0.6366
20951SOL    HW163031   4.623   0.955   7.596  0.2878 -0.4744 -0.9012
20951SOL    HW263032   4.494   0.866   7.547 -0.1340 -0.0508 -0.5694
20952SOL     OW63033   7.093   4.410   5.563  0.6518  0.6556  0.1834
20952SOL    HW163034   7.176   4.387   5.514  0.5661 -1.5517  0.9657
20952SOL    HW263035   7.022   4.342   5.543 -0.4708  1.6222  0.7212
20953SOL     OW63036   3.089   6.434   8.397 -0.3875  0.2055 -0.1386
20953SOL    HW163037   3.024   6.489   8.344  1.8969  0.7110 -2.5976
20953SOL    HW263038   3.182   6.461   8.373  0.7908 -1.9546  1.6928
20954SOL     OW63039   0.334   3.121   4.162  0.2122  0.1357 -0.2093
20954SOL    HW163040   0.360   3.217   4.167 -1.9225  0.7423  0.7428
20954SOL    HW263041   0.300   3.092   4.252 -0.1153 -1.2140 -0.7478
20955SOL     OW63042   1.170   4.824   2.312 -0.2344 -0.3095 -0.5131
20955SOL    HW163043   1.193   4.783   2.400 -0.3005  0.3731 -0.1749
20955SOL    HW263044   1.095   4.772   2.270 -0.7377 -0.1687  0.1978
20956SOL     OW63045   4.687   5.795   3.056  0.0343  0.6021  0.4250
20956SOL    HW163046   4.648   5.869   3.001 -1.0636 -0.2304  0.0683
20956SOL    HW263047   4.625   5.771   3.130 -0.8729 -1.6793 -0.9676
20957SOL     OW63048   0.942   0.643   2.590  0.2347 -0.4242  0.7554
20957SOL    HW163049   0.886   0.568   2.554 -0.5750  0.4776  0.0659
20957SOL    HW263050   0.890   0.728   2.583  1.4486  0.3288  0.7517
20958SOL     OW63051   0.096   6.078   6.633 -0.2568 -0.1041 -0.5878
20958SOL    HW163052   0.121   6.039   6.722  0.7140  0.7341 -0.4756
20958SOL    HW263053   0.066   6.172   6.646 -0.2331 -0.0215 -1.1313
20959SOL     OW63054   4.004   3.414   7.285 -0.2180 -0.2241 -0.0417
20959SOL    HW163055   3.939   3.373   7.222 -0.1168  1.0857 -1.0358
20959SOL    HW263056   3.959   3.488   7.336  0.5553  1.0047 -1.0665
20960SOL     OW63057   6.952   5.318   4.877 -0.0829  0.3518  0.4610
20960SOL    HW163058   6.985   5.304   4.970  0.8835  1.5234  0.3236
20960SOL    HW263059   7.012   5.271   4.812  1.9861  3.1455  0.1492
20961SOL     OW63060   0.958   8.041   3.601 -0.0142 -0.3605 -0.3787
20961SOL    HW163061   0.930   8.066   3.508 -0.6634  0.7259  0.0887
20961SOL    HW263062   0.927   7.948   3.621  1.6757 -1.3036 -1.8545
20962SOL     OW63063   8.602   2.613   6.594  0.0357 -0.7085 -0.0198
20962SOL    HW163064   8.635   2.654   6.679  0.9774  0.3600 -0.8741
20962SOL    HW263065   8.563   2.523   6.613  0.1400 -0.4445  1.5463
20963SOL     OW63066   6.329   0.331   0.395 -0.4747 -0.1024 -0.1695
20963SOL    HW163067   6.300   0.422   0.368 -0.6281  0.0371  0.4560
20963SOL    HW263068   6.320   0.269   0.317  1.5606  0.8304 -1.2206
20964SOL     OW63069   0.694   2.005   4.220 -0.1039  0.3747  0.0251
20964SOL    HW163070   0.737   1.918   4.242 -1.0210 -0.6805 -2.1362
20964SOL    HW263071   0.733   2.041   4.135  0.9511  2.6285  1.3516
20965SOL     OW63072   7.690   5.755   2.477  0.2384 -0.4609  0.1161
20965SOL    HW163073   7.650   5.734   2.565 -0.7381 -0.9510 -0.4331
20965SOL    HW263074   7.749   5.679   2.448  0.6391 -0.2562  0.3808
20966SOL     OW63075   1.920   1.236   7.826 -0.1461 -0.8382  0.0901
20966SOL    HW163076   1.953   1.144   7.845  0.5279 -0.7414 -0.5513
20966SOL    HW263077   1.907   1.285   7.913 -0.5106 -1.5297  0.4335
20967SOL     OW63078   6.223   1.407   2.481 -0.2510 -0.1104 -0.3699
20967SOL    HW163079   6.298   1.471   2.461 -0.9350  0.1281 -2.3074
20967SOL    HW263080   6.244   1.318   2.442 -0.8812 -0.1053 -0.7208
20968SOL     OW63081   5.416   4.292   7.309  0.5309 -0.0439 -0.0452
20968SOL    HW163082   5.512   4.269   7.321  0.9314  1.4813 -0.1876
20968SOL    HW263083   5.398   4.383   7.346 -0.5278  0.3191 -1.3721
20969SOL     OW63084   4.418   0.288   0.308 -0.8103  0.4397 -0.1886
20969SOL    HW163085   4.455   0.295   0.401 -1.8756 -0.4237  0.3349
20969SOL    HW263086   4.380   0.377   0.281 -0.8044  0.6092  0.3441
20970SOL     OW63087   7.798   8.827   7.748 -0.3194 -0.7352  0.4728
20970SOL    HW163088   7.811   8.728   7.752  0.6522 -0.5818  1.2386
20970SOL    HW263089   7.886   8.872   7.735 -0.6945  0.0578  0.6260
20971SOL     OW63090   4.554   3.423   4.240  0.4768 -0.5034  0.0510
20971SOL    HW163091   4.587   3.343   4.190 -1.2500 -0.4985 -1.1960
20971SOL    HW263092   4.570   3.411   4.338 -0.9497 -3.0215  0.0416
20972SOL     OW63093   6.986   4.281   3.239 -0.0374  0.0941  0.3270
20972SOL    HW163094   7.083   4.305   3.246  0.1590 -1.0600  1.9893
20972SOL    HW263095   6.977   4.182   3.230 -1.0795  0.1803  0.3368
20973SOL     OW63096   6.179   1.112   0.080 -0.2587 -0.1015  0.6428
20973SOL    HW163097   6.269   1.120   0.037 -0.4548 -2.6640 -0.4028
20973SOL    HW263098   6.108   1.134   0.013 -0.4886  2.1576  1.5308
20974SOL     OW63099   5.075   2.572   4.716  0.8070 -0.0019  0.1117
20974SOL    HW163100   5.049   2.519   4.635 -2.3260  1.8484 -0.2647
20974SOL    HW263101   5.149   2.525   4.764 -0.7265 -3.9024 -0.9344
20975SOL     OW63102   6.514   6.119   7.860  0.8397 -0.4049 -0.2330
20975SOL    HW163103   6.588   6.100   7.795 -0.1581 -0.9514 -1.2337
20975SOL    HW263104   6.495   6.217   7.861  1.3589 -0.3015 -0.2148
20976SOL     OW63105   5.679   7.509   1.881  0.4297 -0.1388 -0.3141
20976SOL    HW163106   5.742   7.554   1.943  0.3733  1.3923 -1.3203
20976SOL    HW263107   5.666   7.565   1.799 -1.5597 -0.8152 -0.5361
20977SOL     OW63108   6.923   6.681   8.835  0.4120  0.0047 -0.0425
20977SOL    HW163109   6.824   6.693   8.843  0.3572 -0.2592 -0.3254
20977SOL    HW263110   6.947   6.586   8.858  0.6385  0.1647  0.3838
20978SOL     OW63111   0.917   5.579   1.748 -0.2132  0.1050  0.4259
20978SOL    HW163112   0.819   5.576   1.769 -0.4613 -1.5208 -0.7778
20978SOL    HW263113   0.943   5.497   1.696  1.5461  1.0733 -0.3210
20979SOL     OW63114   6.317   2.616   3.913  0.0332  0.2466  0.1532
20979SOL    HW163115   6.301   2.574   3.824  0.8554 -3.3134  1.5441
20979SOL    HW263116   6.229   2.635   3.957 -0.4202 -1.5016  0.0696
20980SOL     OW63117   5.076   1.269   4.286 -0.0238 -0.1069 -0.1116
20980SOL    HW163118   5.061   1.305   4.194  0.0236 -0.7786 -0.3888
20980SOL    HW263119   5.158   1.212   4.287  0.5200  0.6780  0.5775
20981SOL     OW63120   4.861   0.964   7.976 -0.4787 -0.0807  0.0004
20981SOL    HW163121   4.823   0.911   8.051  0.9379  1.2385  1.7146
20981SOL    HW263122   4.798   1.038   7.952 -0.3667  0.2654  0.7652
20982SOL     OW63123   1.509   2.823   5.454  0.3189 -0.4368 -0.0491
20982SOL    HW163124   1.505   2.757   5.529 -1.3681 -1.4837 -0.9980
20982SOL    HW263125   1.421   2.825   5.407  0.1622  2.7259  0.1094
20983SOL     OW63126   1.219   2.519   3.484  0.4711  0.1113  0.2759
20983SOL    HW163127   1.280   2.475   3.418 -0.9298 -0.2595 -0.8100
20983SOL    HW263128   1.170   2.594   3.440 -0.0948  0.1973  1.0327
20984SOL     OW63129   4.665   6.756   6.375 -0.4932  0.1638  0.0178
20984SOL    HW163130   4.645   6.808   6.458 -1.7894 -0.4820  0.1434
20984SOL    HW263131   4.759   6.722   6.379  0.0856  1.7136  0.3322
20985SOL     OW63132   2.410   5.775   6.399 -0.1352  0.8579 -0.0740
20985SOL    HW163133   2.443   5.832   6.474  0.4984  1.2947 -0.6644
20985SOL    HW263134   2.483   5.712   6.372 -0.5126  0.4049 -0.0316
20986SOL     OW63135   4.214   4.858   1.822  0.1825 -0.1317  0.0960
20986SOL    HW163136   4.260   4.887   1.738 -0.0322 -2.8794 -1.0932
20986SOL    HW263137   4.164   4.773   1.804  0.2658 -0.9033  3.0611
20987SOL     OW63138   1.439   5.228   2.966 -0.4429 -0.4138 -0.4630
20987SOL    HW163139   1.495   5.146   2.977 -0.0545  0.1760  3.6951
20987SOL    HW263140   1.342   5.204   2.973 -0.3747 -0.6362 -0.2574
20988SOL     OW63141   1.138   4.517   3.991 -0.3041  0.1037 -0.0009
20988SOL    HW163142   1.198   4.564   3.926 -0.3490  1.3704  0.8311
20988SOL    HW263143   1.052   4.494   3.946  0.1813 -0.2588 -0.7559
20989SOL     OW63144   3.325   0.958   8.416 -0.4012  0.6938  0.0518
20989SOL    HW163145   3.371   0.873   8.392 -2.2951 -0.1661 -0.7206
20989SOL    HW263146   3.249   0.939   8.479  0.3604  2.0938  1.4631
20990SOL     OW63147   6.553   6.373   7.695 -0.1405  0.3171 -0.0600
20990SOL    HW163148   6.466   6.381   7.646  0.1381 -0.7331 -0.7490
20990SOL    HW263149   6.625   6.419   7.643 -0.2795  1.2500  0.5464
20991SOL     OW63150   2.879   1.682   4.900  0.4496 -0.1061 -0.4279
20991SOL    HW163151   2.869   1.749   4.974  0.6202 -1.3314  0.7442
20991SOL    HW263152   2.867   1.728   4.812 -0.7662  1.2252  0.3786
20992SOL     OW63153   1.206   4.380   2.715  0.2228 -0.1813 -0.4573
20992SOL    HW163154   1.129   4.325   2.746  2.0590 -1.9895  1.1772
20992SOL    HW263155   1.193   4.475   2.743 -0.6615 -0.7612  1.2056
20993SOL     OW63156   4.575   1.976   8.141 -0.3475 -0.1888 -0.1835
20993SOL    HW163157   4.630   1.974   8.225  0.0426 -0.3413 -0.4373
20993SOL    HW263158   4.496   2.036   8.154 -0.9395 -1.1287  0.6876
20994SOL     OW63159   8.150   6.158   8.760 -0.2105  0.4371  0.1703
20994SOL    HW163160   8.121   6.190   8.670  1.4454  0.3290 -0.4325
20994SOL    HW263161   8.249   6.169   8.769  0.0538 -1.9821  0.9810
20995SOL     OW63162   5.008   0.878   1.884 -0.0319 -0.0757  0.2950
20995SOL    HW163163   5.089   0.936   1.894 -0.8877  1.5439 -1.5107
20995SOL    HW263164   5.019   0.817   1.806  0.1263 -1.1148  1.1055
20996SOL     OW63165   1.056   1.794   7.399 -0.0930 -0.1152  0.0131
20996SOL    HW163166   1.093   1.781   7.307 -1.0533  0.7569 -0.5208
20996SOL    HW263167   0.981   1.729   7.414  0.1210 -0.3159  0.2086
20997SOL     OW63168   7.027   5.831   8.083  0.0528 -0.3781 -0.1999
20997SOL    HW163169   7.030   5.850   8.181 -1.0421 -1.0411 -0.0218
20997SOL    HW263170   6.932   5.835   8.051  0.6377  3.7409 -2.0599
20998SOL     OW63171   6.542   1.795   5.239  0.6040  0.0216 -0.1689
20998SOL    HW163172   6.554   1.710   5.290  0.0183  0.4241  0.6748
20998SOL    HW263173   6.613   1.803   5.169  0.0431 -1.6457 -0.9586
20999SOL     OW63174   8.160   8.157   5.274  0.0747 -0.1609  0.2515
20999SOL    HW163175   8.235   8.184   5.213 -0.3631 -1.1361 -0.7527
20999SOL    HW263176   8.173   8.200   5.363  1.5003  0.1623 -0.0805
21000SOL     OW63177   3.268   4.503   3.109  0.0599 -0.6767  0.1594
21000SOL    HW163178   3.343   4.541   3.163  1.5139 -1.3869 -1.2637
21000SOL    HW263179   3.274   4.538   3.015 -0.3128 -2.1179 -0.4229
21001SOL     OW63180   7.738   2.619   3.766  0.5862 -0.0651  0.0599
21001SOL    HW163181   7.796   2.668   3.700 -0.8902  2.3845  0.4583
21001SOL    HW263182   7.690   2.545   3.720 -0.6856  1.7970 -1.7957
21002SOL     OW63183   4.803   8.115   4.701  0.4164 -0.1562 -0.3457
21002SOL    HW163184   4.791   8.212   4.720 -0.0077 -0.2648 -0.0323
21002SOL    HW263185   4.794   8.063   4.786 -0.5907 -0.5733 -0.6964
21003SOL     OW63186   5.244   8.762   0.449  0.2354 -0.5827 -0.1215
21003SOL    HW163187   5.328   8.750   0.396 -0.3629  0.1333 -1.2712
21003SOL    HW263188   5.242   8.697   0.525  0.8940 -1.9602 -1.2561
21004SOL     OW63189   4.958   6.763   7.115  0.2586 -0.2280 -0.0086
21004SOL    HW163190   4.983   6.694   7.184 -0.1285 -0.5816 -0.2147
21004SOL    HW263191   5.005   6.744   7.029  0.6091  0.1143  0.1042
21005SOL     OW63192   1.016   7.008   5.837 -0.3814  0.5458  0.3273
21005SOL    HW163193   0.980   6.991   5.746  1.1545  0.9303 -0.3847
21005SOL    HW263194   1.115   7.021   5.832 -0.1385 -0.2497  2.1599
21006SOL     OW63195   5.034   2.659   0.641  0.0772 -0.3359 -0.0116
21006SOL    HW163196   5.098   2.720   0.595 -0.1624  0.9639  1.3166
21006SOL    HW263197   4.940   2.682   0.615 -0.1016  0.8711  1.6157
21007SOL     OW63198   7.102   4.953   7.675  0.0590 -0.0311  0.1316
21007SOL    HW163199   7.127   4.940   7.580 -1.4160  0.6227 -0.3763
21007SOL    HW263200   7.040   4.879   7.704 -1.2217  0.9080 -0.1007
21008SOL     OW63201   8.051   1.800   0.862 -0.2205  0.1566  0.2305
21008SOL    HW163202   8.094   1.710   0.862  0.5950  0.5197 -0.8194
21008SOL    HW263203   7.997   1.811   0.778  0.7392  1.0993 -0.2883
21009SOL     OW63204   2.666   1.433   3.678  0.7008 -0.4576 -0.0075
21009SOL    HW163205   2.568   1.452   3.680  0.7822 -0.0325  0.0971
21009SOL    HW263206   2.714   1.509   3.634  1.0008 -0.5935  0.0790
21010SOL     OW63207   5.692   4.619   1.208 -0.4546 -0.5391 -0.1644
21010SOL    HW163208   5.605   4.592   1.167 -0.4913  0.7991 -1.0348
21010SOL    HW263209   5.763   4.624   1.138  0.0841 -0.6203  0.3650
21011SOL     OW63210   3.781   5.700   4.886 -0.4149  0.0521 -0.3701
21011SOL    HW163211   3.702   5.710   4.947 -1.8405 -2.8216 -1.5796
21011SOL    HW263212   3.820   5.790   4.868 -2.0379  1.3546  1.9868
21012SOL     OW63213   6.536   5.803   7.316  0.1695 -0.3334 -0.0762
21012SOL    HW163214   6.636   5.809   7.307  0.0347  0.4030 -1.1196
21012SOL    HW263215   6.502   5.885   7.362 -0.1663  0.4338 -1.6387
21013SOL     OW63216   4.252   1.176   7.432  0.0844 -0.1852 -0.3153
21013SOL    HW163217   4.153   1.163   7.434 -0.2306  1.8302  0.2909
21013SOL    HW263218   4.289   1.158   7.523  0.0598  0.3093 -0.2026
21014SOL     OW63219   4.432   3.800   8.139  0.1336 -0.0033 -0.6056
21014SOL    HW163220   4.477   3.834   8.056  0.2001  1.4334 -0.0131
21014SOL    HW263221   4.428   3.700   8.136  2.3542 -0.1372 -1.1973
21015SOL     OW63222   2.567   8.830   2.041  0.1986  0.0631 -0.1351
21015SOL    HW163223   2.575   8.778   1.956 -0.7778 -0.4171  0.0593
21015SOL    HW263224   2.657   8.836   2.085  0.2640 -1.8955  0.0925
21016SOL     OW63225   7.565   2.698   4.019 -0.0966  0.2744 -0.2524
21016SOL    HW163226   7.603   2.789   4.005  2.5749 -0.4025  1.7529
21016SOL    HW263227   7.625   2.630   3.977 -1.1791 -0.6695 -0.3186
21017SOL     OW63228   6.914   5.688   3.301  0.0042  0.9252 -0.2141
21017SOL    HW163229   6.906   5.649   3.210  0.9822  1.1894 -0.4195
21017SOL    HW263230   6.971   5.771   3.298  0.4535  0.6691  0.7022
21018SOL     OW63231   5.535   0.641   0.133  0.2680 -0.2596 -0.0827
21018SOL    HW163232   5.570   0.553   0.165  1.0521  0.4711  1.1346
21018SOL    HW263233   5.454   0.626   0.077  1.3137 -1.8626 -1.2521
21019SOL     OW63234   8.364   0.564   6.719 -0.5880 -0.0539 -0.9750
21019SOL    HW163235   8.288   0.613   6.677  0.0819  1.7377 -0.2058
21019SOL    HW263236   8.429   0.534   6.649 -0.6503  0.8345 -1.4160
21020SOL     OW63237   5.111   5.211   0.130 -0.1073 -0.2621 -0.0497
21020SOL    HW163238   5.062   5.238   0.047  0.5147 -2.3523 -1.1674
21020SOL    HW263239   5.190   5.156   0.106  0.0709 -0.9676  1.9504
21021SOL     OW63240   0.328   7.241   2.264  0.7327 -0.2257 -0.4006
21021SOL    HW163241   0.361   7.241   2.359 -0.4514 -2.3587  0.0792
21021SOL    HW263242   0.402   7.270   2.203  1.5074  1.2180  1.1536
21022SOL     OW63243   6.084   6.019   2.137  0.4110  0.6326  0.3943
21022SOL    HW163244   6.016   5.959   2.094 -0.9663  1.8398  0.8242
21022SOL    HW263245   6.175   5.996   2.102 -0.4154  0.1976 -1.5849
21023SOL     OW63246   8.400   8.208   1.801  0.3430 -0.2557 -0.3060
21023SOL    HW163247   8.442   8.120   1.780 -1.3068 -1.2119  0.1795
21023SOL    HW263248   8.471   8.275   1.824  1.8365 -0.7419 -2.9791
21024SOL     OW63249   4.979   3.326   0.133 -0.3997 -0.1196 -0.3579
21024SOL    HW163250   4.955   3.242   0.084 -2.0950  0.2309 -0.1858
21024SOL    HW263251   5.078   3.341   0.127  0.3706 -3.4033  1.6394
21025SOL     OW63252   6.946   4.696   7.747  0.4093 -0.2390 -0.3452
21025SOL    HW163253   6.847   4.691   7.735  0.1507 -1.2739  1.7018
21025SOL    HW263254   6.972   4.642   7.828  2.5512  0.6842 -0.3624
21026SOL     OW63255   2.793   1.829   3.867  0.2618 -0.5051 -0.3559
21026SOL    HW163256   2.886   1.860   3.851  2.3534 -3.2915  4.3151
21026SOL    HW263257   2.754   1.878   3.945 -2.0710  0.1900 -1.8583
21027SOL     OW63258   2.166   5.628   2.969  0.1521 -0.1382 -0.0010
21027SOL    HW163259   2.113   5.642   2.886  1.2257  1.7583 -0.4292
21027SOL    HW263260   2.195   5.716   3.006  0.9659 -1.0028  1.5614
21028SOL     OW63261   3.612   4.832   6.154 -0.1712 -0.5880  0.1054
21028SOL    HW163262   3.687   4.768   6.168  0.4058  0.2807  1.0505
21028SOL    HW263263   3.525   4.782   6.154  0.2655 -1.3575  0.8585
21029SOL     OW63264   0.622   7.703   0.269  0.1791 -0.2900 -0.6799
21029SOL    HW163265   0.696   7.769   0.283 -2.0417  2.3707 -0.4958
21029SOL    HW263266   0.633   7.627   0.334  2.8282 -0.1534 -0.8565
21030SOL     OW63267   7.578   7.543   7.746 -0.4286  0.3894  0.2714
21030SOL    HW163268   7.598   7.455   7.790 -0.1808  1.4517  2.3966
21030SOL    HW263269   7.661   7.599   7.743 -0.4504  0.4005 -1.5708
21031SOL     OW63270   4.761   5.726   0.997 -0.1751  0.2403 -0.0891
21031SOL    HW163271   4.809   5.721   1.084 -0.8559  0.3378  0.2970
21031SOL    HW263272   4.754   5.822   0.968 -1.2121  0.3543  0.4775
21032SOL     OW63273   2.164   5.082   2.250 -0.2890 -1.0258  0.0955
21032SOL    HW163274   2.146   5.178   2.227 -1.8127 -0.6184  2.5693
21032SOL    HW263275   2.262   5.069   2.265  0.2826 -0.5267 -2.7146
21033SOL     OW63276   8.592   1.383   8.683 -0.6516 -0.5577  0.0715
21033SOL    HW163277   8.540   1.305   8.714  0.4902 -1.5581 -0.4384
21033SOL    HW263278   8.642   1.359   8.599 -1.6345  1.2477 -1.1087
21034SOL     OW63279   3.304   6.686   0.837 -0.2750 -0.4678 -0.4193
21034SOL    HW163280   3.384   6.629   0.817  0.2233  0.2619 -0.5325
21034SOL    HW263281   3.221   6.631   0.827  0.2623 -1.6056  0.9907
21035SOL     OW63282   3.351   7.480   3.573  0.2268 -1.4782 -0.0681
21035SOL    HW163283   3.369   7.386   3.542 -0.4962 -0.9822 -2.1567
21035SOL    HW263284   3.277   7.480   3.640  0.8577 -2.4712  0.6550
21036SOL     OW63285   6.485   7.639   5.801  0.2330 -0.0947  0.0325
21036SOL    HW163286   6.578   7.669   5.822  0.2769  0.9312 -1.4996
21036SOL    HW263287   6.458   7.568   5.867  1.5386  0.6041  1.3987
21037SOL     OW63288   0.366   5.380   2.465  0.2189  0.2196  0.0264
21037SOL    HW163289   0.424   5.299   2.473 -0.9205 -0.7173 -0.8225
21037SOL    HW263290   0.419   5.456   2.428  0.4936 -1.1722 -2.7020
21038SOL     OW63291   0.369   7.895   0.986 -0.0106 -0.1332  0.3573
21038SOL    HW163292   0.433   7.956   1.033 -1.6360  0.7142  1.5423
21038SOL    HW263293   0.371   7.914   0.887 -0.4622  1.8497  0.6904
21039SOL     OW63294   3.271   5.101   3.819  0.0988  0.2164 -0.0324
21039SOL    HW163295   3.366   5.105   3.849  0.0829 -0.8270  0.1843
21039SOL    HW263296   3.210   5.102   3.898  0.0026 -0.9269 -0.0726
21040SOL     OW63297   7.898   7.529   4.344 -0.0994 -0.0756 -0.2823
21040SOL    HW163298   7.876   7.586   4.423 -0.6889 -0.0154 -0.4838
21040SOL    HW263299   7.842   7.446   4.347  0.5741 -0.5408 -0.1214
21041SOL     OW63300   5.432   0.683   5.284 -0.5771 -0.0296 -0.8517
21041SOL    HW163301   5.470   0.592   5.298 -0.8588 -0.1290 -0.7400
21041SOL    HW263302   5.442   0.709   5.187  0.9574  0.4745 -0.5916
21042SOL     OW63303   3.305   6.240   8.612 -0.0167 -0.1032  0.6615
21042SOL    HW163304   3.293   6.306   8.538  0.0957 -2.0277 -1.1743
21042SOL    HW263305   3.285   6.284   8.700 -1.0363  2.0286 -0.5593
21043SOL     OW63306   2.129   4.031   7.908 -0.1564 -0.8760 -0.2842
21043SOL    HW163307   2.067   4.057   7.983  0.0098 -1.2922  0.0011
21043SOL    HW263308   2.188   3.956   7.938  0.5974 -0.3731 -0.5049
21044SOL     OW63309   4.890   6.269   0.411  0.3061 -0.4024 -0.0921
21044SOL    HW163310   4.899   6.255   0.510  1.4292  1.0488  0.0521
21044SOL    HW263311   4.869   6.182   0.367 -1.6103 -0.8465  1.5568
21045SOL     OW63312   6.349   7.671   1.626  0.0068 -0.6521  0.3633
21045SOL    HW163313   6.282   7.703   1.558 -0.7004  1.6539  2.0041
21045SOL    HW263314   6.399   7.750   1.663  0.7927 -1.8943  2.0801
21046SOL     OW63315   8.294   4.241   6.780  0.2817 -0.0231 -0.4950
21046SOL    HW163316   8.302   4.341   6.784  0.8252 -0.0821 -0.1064
21046SOL    HW263317   8.198   4.216   6.773  0.1560  0.5384 -0.8555
21047SOL     OW63318   5.521   0.935   0.182 -0.7896  0.5970 -0.7556
21047SOL    HW163319   5.542   0.993   0.103  0.7644  0.3379 -0.5659
21047SOL    HW263320   5.553   0.842   0.165  2.5897  1.1780  1.3019
21048SOL     OW63321   0.293   5.446   0.687 -0.2459 -0.0649 -0.5774
21048SOL    HW163322   0.257   5.479   0.774 -0.6610 -1.8186 -0.0539
21048SOL    HW263323   0.265   5.509   0.614 -3.8161 -0.8882 -0.1071
21049SOL     OW63324   5.387   7.764   1.010  0.2335  0.3682 -0.7006
21049SOL    HW163325   5.361   7.691   1.072 -0.2693 -0.7650 -2.1784
21049SOL    HW263326   5.307   7.797   0.960  0.6649  1.0356 -0.9783
21050SOL     OW63327   3.555   3.408   0.370  0.1829 -0.1678 -0.2310
21050SOL    HW163328   3.633   3.362   0.327 -0.9815  0.2385 -2.9657
21050SOL    HW263329   3.566   3.507   0.360 -0.4502 -0.0934 -0.1842
21051SOL     OW63330   7.842   3.771   8.095 -0.0114  0.3508  0.4217
21051SOL    HW163331   7.821   3.820   8.010 -0.0096 -2.5357 -1.3839
21051SOL    HW263332   7.758   3.735   8.134  0.2930 -1.1232 -0.2270
21052SOL     OW63333   8.525   1.068   4.553  0.8680 -0.1967  0.0406
21052SOL    HW163334   8.504   1.107   4.643 -1.0530  0.5741 -0.7024
21052SOL    HW263335   8.513   0.968   4.557 -1.0044  0.0068  0.2011
21053SOL     OW63336   2.640   5.037   6.422  0.4606  0.1157 -0.0519
21053SOL    HW163337   2.647   5.088   6.336  0.5376  0.7869  0.3515
21053SOL    HW263338   2.545   5.008   6.435  0.4638 -0.0595 -0.4029
21054SOL     OW63339   2.278   0.429   5.658 -0.3748  0.0561 -0.4772
21054SOL    HW163340   2.277   0.428   5.558 -2.8892  0.3428 -0.5174
21054SOL    HW263341   2.187   0.453   5.692 -0.0836 -1.8051  1.8929
21055SOL     OW63342   1.328   7.040   1.607 -0.6730 -0.2681 -0.1026
21055SOL    HW163343   1.416   6.993   1.604 -0.3205  0.3954 -0.3423
21055SOL    HW263344   1.278   7.013   1.690 -0.0452 -0.2821  0.2752
21056SOL     OW63345   3.242   7.756   4.591 -0.1707 -0.3276  0.3692
21056SOL    HW163346   3.153   7.754   4.636  0.0567 -2.4928  0.8387
21056SOL    HW263347   3.238   7.705   4.505  0.4946  0.0233  0.1180
21057SOL     OW63348   2.275   2.496   4.783 -0.2427 -0.2700 -0.5992
21057SOL    HW163349   2.270   2.437   4.703 -0.2180 -1.5515  0.3130
21057SOL    HW263350   2.347   2.564   4.770  0.2100 -0.8837 -1.3912
21058SOL     OW63351   7.179   8.677   8.746  0.1397  0.3135 -0.1774
21058SOL    HW163352   7.089   8.698   8.709  0.2606  1.9001  0.3298
21058SOL    HW263353   7.171   8.604   8.814 -0.8885  0.8667  0.3245
21059SOL     OW63354   7.460   5.912   8.202 -0.1656 -0.0182 -0.0285
21059SOL    HW163355   7.469   5.953   8.111 -2.0902  0.5440 -0.0214
21059SOL    HW263356   7.430   5.817   8.193 -2.9066  0.7780 -0.0231
21060SOL     OW63357   0.291   6.643   2.128 -0.0604  0.8625  0.1159
21060SOL    HW163358   0.322   6.620   2.221  0.9774  2.9996  0.3648
21060SOL    HW263359   0.208   6.591   2.107  1.0160 -1.4775  1.2861
21061SOL     OW63360   6.922   1.430   1.257 -0.6865 -0.9138 -0.1062
21061SOL    HW163361   6.845   1.491   1.237 -0.3678 -0.4997 -0.0797
21061SOL    HW263362   6.937   1.427   1.356  0.3020  0.2237 -0.1972
21062SOL     OW63363   1.101   6.027   0.603  0.1848 -0.2534  0.6625
21062SOL    HW163364   1.157   6.105   0.631 -0.7654  0.3203  1.0076
21062SOL    HW263365   1.020   6.060   0.554  0.8858 -1.1461 -1.1836
21063SOL     OW63366   4.726   0.375   1.972 -0.3772 -0.4134 -0.0924
21063SOL    HW163367   4.736   0.280   1.945 -0.4137 -0.6416  0.6781
21063SOL    HW263368   4.650   0.384   2.036 -1.2096  0.3415 -1.1268
21064SOL     OW63369   0.894   3.500   1.779  0.2908  0.2290  0.2306
21064SOL    HW163370   0.884   3.404   1.806  2.1169  0.0120  0.2543
21064SOL    HW263371   0.912   3.506   1.681 -1.3760  0.6832 -0.0763
21065SOL     OW63372   3.349   8.798   1.119 -0.6087 -0.1789 -0.0346
21065SOL    HW163373   3.343   8.878   1.179  0.7502 -0.2154  0.1719
21065SOL    HW263374   3.276   8.802   1.051  0.7517  2.4478 -1.4838
21066SOL     OW63375   0.888   2.901   1.086  0.7272 -0.0170 -0.4679
21066SOL    HW163376   0.867   2.807   1.113  2.4816 -1.1065 -2.6285
21066SOL    HW263377   0.951   2.941   1.153  2.2086 -1.4119 -0.9555
21067SOL     OW63378   3.874   6.325   2.775 -0.2328  0.1025 -0.4655
21067SOL    HW163379   3.794   6.312   2.717  0.1976 -0.2156 -0.9931
21067SOL    HW263380   3.865   6.412   2.825 -1.3338 -0.3734  0.1917
21068SOL     OW63381   3.150   6.159   7.696 -0.3555  0.0956 -0.3126
21068SOL    HW163382   3.136   6.216   7.615  0.6044  0.2846 -0.3597
21068SOL    HW263383   3.118   6.208   7.777 -0.4002  0.3180 -0.4648
21069SOL     OW63384   2.141   6.398   1.519  0.2853  0.7683  0.0195
21069SOL    HW163385   2.206   6.354   1.457  3.3671  4.8633 -0.0640
21069SOL    HW263386   2.089   6.467   1.469 -2.3692 -0.5785  0.7081
21070SOL     OW63387   8.056   2.768   7.581 -0.2634 -0.1806 -0.5161
21070SOL    HW163388   8.095   2.831   7.648 -1.5211  0.3944 -0.2972
21070SOL    HW263389   8.129   2.710   7.544  0.9076  1.2561 -0.5761
21071SOL     OW63390   1.684   2.995   5.354  0.3152  0.0728  0.0829
21071SOL    HW163391   1.643   2.905   5.369  2.8313 -1.2038 -0.2886
21071SOL    HW263392   1.625   3.048   5.292 -1.4746 -1.0624  0.7242
21072SOL     OW63393   2.281   8.307   5.329 -0.0057 -0.1174 -0.0743
21072SOL    HW163394   2.205   8.253   5.293  0.1301 -0.0405 -0.4801
21072SOL    HW263395   2.312   8.372   5.259  1.0070 -0.7529 -0.2311
21073SOL     OW63396   2.823   4.815   1.516 -0.3967 -0.4434  0.0407
21073SOL    HW163397   2.771   4.899   1.529  1.2729  1.0580 -2.2416
21073SOL    HW263398   2.876   4.821   1.431  0.5087 -3.4468  0.2747
21074SOL     OW63399   1.282   6.587   6.477 -0.2887  0.4390  0.2315
21074SOL    HW163400   1.336   6.514   6.435 -2.3539 -1.2437  0.3177
21074SOL    HW263401   1.239   6.642   6.405 -0.5819  0.0999  0.1439
21075SOL     OW63402   7.566   2.473   2.565 -0.5064  0.1425 -0.7578
21075SOL    HW163403   7.599   2.385   2.601 -1.2723  0.0286 -0.3278
21075SOL    HW263404   7.610   2.491   2.477  0.3268 -0.2466 -0.4318
21076SOL     OW63405   8.720   0.053   2.046 -0.1301 -0.5654  0.2960
21076SOL    HW163406   8.799   0.085   1.994  0.6003  0.9536  2.2288
21076SOL    HW263407   8.721  -0.047   2.051  1.2308 -0.6035 -0.3547
21077SOL     OW63408   4.826   4.434   1.508 -0.3011  0.0093 -0.0848
21077SOL    HW163409   4.914   4.476   1.486  0.7400 -2.4285 -0.9368
21077SOL    HW263410   4.801   4.456   1.602  1.6718  0.0469  0.4749
21078SOL     OW63411   2.400   2.175   2.379 -0.7102  0.0238 -0.1788
21078SOL    HW163412   2.386   2.253   2.319 -0.8070  0.3966  0.3144
21078SOL    HW263413   2.315   2.123   2.386 -0.3393 -0.7625 -1.3742
21079SOL     OW63414   2.619   7.841   3.450  0.6360  0.5627 -0.1403
21079SOL    HW163415   2.642   7.745   3.442  1.2894  0.6903  0.1752
21079SOL    HW263416   2.549   7.864   3.382  0.9465  0.0200 -0.6522
21080SOL     OW63417   1.127   7.625   7.808  0.3107  0.0891 -0.5426
21080SOL    HW163418   1.177   7.566   7.871  1.0037 -1.6421 -2.5759
21080SOL    HW263419   1.090   7.703   7.857  2.4478 -0.1474  1.6046
21081SOL     OW63420   4.636   6.953   4.864  1.0470  0.1611 -0.5719
21081SOL    HW163421   4.627   7.051   4.877  3.2484  0.4177 -0.6951
21081SOL    HW263422   4.625   6.931   4.767 -0.8784  0.0450 -0.3832
21082SOL     OW63423   4.491   5.369   0.058  0.1307  0.0705 -0.2240
21082SOL    HW163424   4.588   5.370   0.034  0.0401 -0.9381 -0.6942
21082SOL    HW263425   4.439   5.418  -0.012  0.1993 -0.2378 -0.4936
21083SOL     OW63426   6.900   4.342   5.095  0.7282  0.0979  0.1618
21083SOL    HW163427   6.826   4.368   5.158  0.2417 -0.1886 -0.2812
21083SOL    HW263428   6.972   4.295   5.145 -0.1368 -1.0620  0.3471
21084SOL     OW63429   2.058   4.918   5.014  0.1531  0.3635 -0.1696
21084SOL    HW163430   2.122   4.862   4.962 -0.3830  0.0666 -0.5165
21084SOL    HW263431   2.107   4.993   5.058  1.2066 -1.3654  1.7895
21085SOL     OW63432   0.208   5.736   6.305 -0.1498 -0.2502 -0.6584
21085SOL    HW163433   0.160   5.668   6.249  1.2015 -0.4256 -1.6551
21085SOL    HW263434   0.143   5.804   6.338 -1.5542 -1.9718  0.3425
21086SOL     OW63435   7.036   8.835   8.145  0.0110 -0.4172  0.3089
21086SOL    HW163436   7.113   8.832   8.208 -0.3376 -0.4395  0.7372
21086SOL    HW263437   6.962   8.889   8.185 -0.1700 -0.3323 -0.1308
21087SOL     OW63438   1.831   4.585   3.945 -0.2394  0.1845  0.2004
21087SOL    HW163439   1.785   4.504   3.981  1.4643 -0.9568 -0.0822
21087SOL    HW263440   1.913   4.604   4.000  0.8758  0.0589 -1.3566
21088SOL     OW63441   6.922   7.627   2.769 -0.1841  0.1050 -0.2107
21088SOL    HW163442   6.964   7.547   2.812  0.3287 -0.8201 -2.2698
21088SOL    HW263443   6.990   7.674   2.713 -0.9043  0.9841 -0.3702
21089SOL     OW63444   3.272   0.355   1.572  0.2850 -0.3046  0.2304
21089SOL    HW163445   3.280   0.256   1.565  0.5966 -0.2295 -0.5000
21089SOL    HW263446   3.195   0.386   1.516  1.0517  0.0049 -0.6741
21090SOL     OW63447   3.246   2.397   3.332  0.1969  0.1078  0.1973
21090SOL    HW163448   3.219   2.491   3.351 -1.1366 -0.2071 -0.0103
21090SOL    HW263449   3.293   2.359   3.411 -1.9428  0.0050  1.4932
21091SOL     OW63450   2.807   8.439   1.082 -0.1220  0.2049  0.2659
21091SOL    HW163451   2.889   8.413   1.032 -0.5333 -1.1122  0.2177
21091SOL    HW263452   2.798   8.381   1.163 -0.7425  0.6607  0.5285
21092SOL     OW63453   3.743   2.873   3.009 -0.0061 -0.1356 -0.2101
21092SOL    HW163454   3.643   2.873   3.005 -0.0209  0.1990  0.0605
21092SOL    HW263455   3.775   2.785   3.043 -0.1536 -0.6509 -1.3636
21093SOL     OW63456   7.379   8.055   8.797  0.6784  0.4353 -0.1595
21093SOL    HW163457   7.344   8.005   8.876 -0.1749 -1.5706 -1.7124
21093SOL    HW263458   7.355   8.152   8.806 -1.4061 -0.1135  0.9857
21094SOL     OW63459   1.705   3.040   7.239  0.2146 -0.0061  0.0513
21094SOL    HW163460   1.647   2.975   7.189  0.0961 -0.1281  0.3431
21094SOL    HW263461   1.714   3.009   7.333 -1.1554  1.2444  0.6333
21095SOL     OW63462   7.681   8.650   3.493  0.4647  0.4551  0.0253
21095SOL    HW163463   7.655   8.642   3.396  1.1163 -1.3704 -0.0465
21095SOL    HW263464   7.672   8.560   3.536 -0.0095  1.2853  1.7381
21096SOL     OW63465   1.993   1.322   0.592  0.3693 -0.2038 -0.1634
21096SOL    HW163466   1.987   1.234   0.544 -0.0650  0.0101 -0.5107
21096SOL    HW263467   2.013   1.394   0.525 -1.2370  0.2501 -0.1991
21097SOL     OW63468   2.990   4.561   3.104  0.2740  0.7878 -0.1451
21097SOL    HW163469   3.083   4.577   3.071  0.6334  1.3325  1.0781
21097SOL    HW263470   2.988   4.566   3.204 -1.1245  1.0685 -0.1575
21098SOL     OW63471   4.997   0.808   8.768  0.2995 -0.7279 -0.6866
21098SOL    HW163472   5.047   0.846   8.846  0.0012  0.7764 -1.1946
21098SOL    HW263473   5.011   0.867   8.688 -1.8096 -0.5612 -0.9925
21099SOL     OW63474   7.978   2.459   1.580 -0.1918  0.4192  0.3767
21099SOL    HW163475   7.987   2.516   1.661  1.0868  1.2986 -0.3465
21099SOL    HW263476   8.058   2.471   1.522 -0.0641 -1.8633  0.0165
21100SOL     OW63477   4.135   2.373   8.484  0.3180 -0.3864  0.1102
21100SOL    HW163478   4.207   2.368   8.553 -0.1111  0.4521  0.6426
21100SOL    HW263479   4.045   2.363   8.528  0.0982 -1.2555 -0.5221
21101SOL     OW63480   5.355   0.131   6.080 -0.3302  0.0913 -0.6185
21101SOL    HW163481   5.287   0.163   6.145  2.6960  1.8625  1.9492
21101SOL    HW263482   5.381   0.206   6.019  0.7251  0.0559 -0.2348
21102SOL     OW63483   8.628   7.950   3.741 -0.2552 -0.1127  0.6312
21102SOL    HW163484   8.697   8.014   3.706 -0.8420  0.4153  0.4254
21102SOL    HW263485   8.567   7.924   3.666 -0.2458 -0.6216  0.8032
21103SOL     OW63486   8.854   7.818   3.475  0.0475  0.5574  0.3331
21103SOL    HW163487   8.868   7.847   3.570  1.8486  2.4329 -0.4274
21103SOL    HW263488   8.889   7.725   3.464 -0.5023  0.1759  1.5619
21104SOL     OW63489   5.562   5.936   3.274  0.1512  0.2742  0.0789
21104SOL    HW163490   5.613   5.955   3.357  0.6105 -1.0063  0.1111
21104SOL    HW263491   5.465   5.959   3.288  0.5124  1.6547  0.3838
21105SOL     OW63492   8.547   1.353   7.093 -0.4487  0.4255  0.2026
21105SOL    HW163493   8.497   1.279   7.049 -0.8322  0.7109  0.1473
21105SOL    HW263494   8.637   1.321   7.121  1.3848  1.1281 -4.0638
21106SOL     OW63495   4.835   2.984   7.852  0.5273 -0.0378  0.5304
21106SOL    HW163496   4.855   3.082   7.847 -2.3860  0.5950 -2.8593
21106SOL    HW263497   4.904   2.933   7.801 -0.0311  0.7522 -1.0605
21107SOL     OW63498   6.430   6.696   0.245  0.1019 -0.0635  0.2648
21107SOL    HW163499   6.465   6.786   0.220  1.1934 -0.5326  0.0389
21107SOL    HW263500   6.469   6.627   0.183 -2.7038 -0.4249 -1.2819
21108SOL     OW63501   6.118   2.286   6.531 -0.3900  0.1223  0.4897
21108SOL    HW163502   6.097   2.188   6.528  1.5826 -0.3855 -3.4297
21108SOL    HW263503   6.194   2.302   6.593  1.1980 -1.4198 -0.9458
21109SOL     OW63504   3.843   4.367   4.773 -0.7845 -0.3981 -0.1955
21109SOL    HW163505   3.805   4.433   4.838 -1.0760 -1.0807  0.3382
21109SOL    HW263506   3.855   4.279   4.818  2.7094  0.0749  0.0594
21110SOL     OW63507   8.294   0.775   7.537 -0.3557 -0.1407 -0.3414
21110SOL    HW163508   8.260   0.852   7.591  0.5927  1.2992 -1.6833
21110SOL    HW263509   8.394   0.771   7.544 -0.4155 -1.4271 -0.0775
21111SOL     OW63510   4.168   8.668   5.732  0.2869 -0.3055 -0.0166
21111SOL    HW163511   4.182   8.572   5.756  1.9267 -0.1423 -0.2045
21111SOL    HW263512   4.174   8.724   5.814 -1.9737 -0.4295  0.3080
21112SOL     OW63513   6.726   5.075   7.978  0.1872 -0.3588  0.3561
21112SOL    HW163514   6.777   5.141   7.923 -0.3734 -2.0961 -2.4385
21112SOL    HW263515   6.789   5.011   8.021  0.6996  1.5702  2.6872
21113SOL     OW63516   7.997   0.531   3.113  0.2427  0.0698 -0.0649
21113SOL    HW163517   7.938   0.538   3.033 -1.4737 -0.4660  1.0933
21113SOL    HW263518   8.019   0.435   3.130 -0.4957  0.0511  0.8487
21114SOL     OW63519   6.207   2.892   8.418 -0.1630  0.0291 -0.1564
21114SOL    HW163520   6.167   2.963   8.361  1.9515  1.2830 -0.1874
21114SOL    HW263521   6.181   2.802   8.383 -0.7551  0.7863 -1.7261
21115SOL     OW63522   5.768   5.943   7.175  0.3130 -0.1952 -0.3030
21115SOL    HW163523   5.809   5.914   7.089 -0.1086 -1.9879  0.0613
21115SOL    HW263524   5.794   5.879   7.248  0.8097  1.3744  0.9751
21116SOL     OW63525   3.166   5.718   6.074  0.0607  0.1330  0.4460
21116SOL    HW163526   3.215   5.679   5.996 -0.8116  1.7459 -0.9764
21116SOL    HW263527   3.230   5.762   6.136  0.6013  0.7132 -0.4963
21117SOL     OW63528   3.764   4.608   6.133 -0.1144  0.0574  0.3261
21117SOL    HW163529   3.719   4.610   6.044  0.4881 -2.6057 -0.1034
21117SOL    HW263530   3.778   4.513   6.162  2.4805  0.8097  1.8502
21118SOL     OW63531   0.318   8.408   2.841 -0.3336  0.4353  0.1235
21118SOL    HW163532   0.259   8.327   2.837  0.3422 -0.0033 -2.3021
21118SOL    HW263533   0.304   8.454   2.929 -1.1669 -1.9616  1.3545
21119SOL     OW63534   3.848   6.176   3.748 -0.1012 -0.3077  0.7876
21119SOL    HW163535   3.800   6.108   3.803  0.3021  0.0433  1.5730
21119SOL    HW263536   3.797   6.262   3.748 -0.5810 -0.5743 -0.1578
21120SOL     OW63537   3.971   7.670   5.810 -0.4299  0.3589  0.3412
21120SOL    HW163538   3.975   7.685   5.909 -0.9965  0.7576  0.3036
21120SOL    HW263539   3.900   7.727   5.770 -1.8204 -1.5160  0.0216
21121SOL     OW63540   1.088   8.325   5.144 -0.0356  0.3016 -0.0554
21121SOL    HW163541   1.108   8.411   5.191 -0.3328 -0.4886  1.6071
21121SOL    HW263542   1.164   8.261   5.157  0.0408  0.1796 -1.0031
21122SOL     OW63543   8.409   0.647   4.224 -0.6257 -0.0307 -0.3640
21122SOL    HW163544   8.505   0.647   4.195 -1.1983 -1.1715 -2.4861
21122SOL    HW263545   8.374   0.741   4.225  0.7315  0.4960  1.3414
21123SOL     OW63546   7.259   3.238   0.022 -0.0254 -0.3800 -0.2481
21123SOL    HW163547   7.351   3.214   0.052 -0.7710 -1.9591  0.8950
21123SOL    HW263548   7.209   3.155  -0.001 -0.9555  0.5087 -1.5634
21124SOL     OW63549   5.321   3.076   6.531 -0.2086 -0.4508 -0.4070
21124SOL    HW163550   5.236   3.120   6.500  0.6602  1.5372 -0.1578
21124SOL    HW263551   5.302   3.018   6.610 -1.0488  1.7924  1.1411
21125SOL     OW63552   4.383   6.093   4.560 -0.5132  0.3760  0.4044
21125SOL    HW163553   4.371   6.103   4.461 -1.0146 -2.8988  0.0147
21125SOL    HW263554   4.469   6.046   4.579 -1.6926 -1.5729  1.2537
21126SOL     OW63555   2.053   1.807   6.916 -0.2293  0.3403  0.0649
21126SOL    HW163556   2.132   1.749   6.935  0.2025  0.5812 -0.9241
21126SOL    HW263557   2.075   1.902   6.941 -0.1595  0.4261 -0.3150
21127SOL     OW63558   8.118   3.810   2.932 -0.1269 -0.0499  0.3570
21127SOL    HW163559   8.148   3.810   3.028 -0.0774  0.9777  0.3519
21127SOL    HW263560   8.180   3.865   2.877 -0.3110 -0.4121 -0.2208
21128SOL     OW63561   5.550   8.601   6.349  0.1812 -0.2106  0.3753
21128SOL    HW163562   5.596   8.610   6.437  2.0493  0.5799 -0.6310
21128SOL    HW263563   5.507   8.688   6.325  1.5310  0.2534 -0.4496
21129SOL     OW63564   0.386   0.765   1.875 -0.6008  0.1721 -0.5143
21129SOL    HW163565   0.378   0.718   1.787  1.5829  1.1072 -1.2724
21129SOL    HW263566   0.369   0.863   1.862 -1.0108  0.2148  0.2747
21130SOL     OW63567   2.105   3.089   4.690 -0.4861 -0.4421  0.4845
21130SOL    HW163568   2.183   3.064   4.748  0.1293 -0.3149 -0.2600
21130SOL    HW263569   2.099   3.189   4.685 -1.2981 -0.4418  1.3139
21131SOL     OW63570   8.384   7.528   4.113 -0.2524  0.0166 -0.0267
21131SOL    HW163571   8.369   7.561   4.020  0.2062 -1.0799 -0.5105
21131SOL    HW263572   8.300   7.536   4.166 -0.4891  0.7273 -0.5031
21132SOL     OW63573   0.236   5.197   0.561 -0.5000  0.0507 -0.2391
21132SOL    HW163574   0.321   5.151   0.586  0.6134  0.0488 -3.5558
21132SOL    HW263575   0.225   5.280   0.616  0.9621 -0.5984  1.0999
21133SOL     OW63576   8.337   3.984   1.651 -0.1267 -0.5803 -0.7590
21133SOL    HW163577   8.357   3.960   1.556  0.1746 -1.0576 -0.5722
21133SOL    HW263578   8.238   3.993   1.662 -0.0796  2.0293 -1.7419
21134SOL     OW63579   8.336   1.711   2.993  0.7490 -0.2540 -0.1166
21134SOL    HW163580   8.267   1.639   2.992 -0.8056  1.1423  0.5529
21134SOL    HW263581   8.411   1.686   3.054 -0.7843 -0.4531  1.7914
21135SOL     OW63582   6.936   3.164   0.017  0.1281  0.2471  0.3369
21135SOL    HW163583   6.977   3.087   0.065  0.9973  1.9389  2.4843
21135SOL    HW263584   6.871   3.211   0.077 -2.3172 -0.2015 -1.7710
21136SOL     OW63585   3.782   7.160   5.825  0.3880 -0.0742  0.1856
21136SOL    HW163586   3.716   7.085   5.819  1.0815 -0.6701 -0.1481
21136SOL    HW263587   3.789   7.206   5.736  0.1784  0.2026  0.3112
21137SOL     OW63588   5.768   0.370   5.987 -0.0340 -0.0540 -0.0473
21137SOL    HW163589   5.802   0.464   5.979  0.2328 -0.2614 -1.9546
21137SOL    HW263590   5.803   0.329   6.071  1.7377  0.8353 -0.2973
21138SOL     OW63591   0.753   5.291   3.619  0.0953  0.0294  0.2467
21138SOL    HW163592   0.731   5.224   3.689 -1.8821  0.3909  0.0317
21138SOL    HW263593   0.686   5.284   3.544 -0.3814  2.4064  0.3651
21139SOL     OW63594   6.189   2.158   2.181  0.3374 -0.4209 -0.0208
21139SOL    HW163595   6.125   2.082   2.196 -0.1284  0.0270  0.2891
21139SOL    HW263596   6.229   2.185   2.268 -0.6461  0.6762  0.1249
21140SOL     OW63597   2.067   0.426   7.064 -0.1185 -0.0496  0.0391
21140SOL    HW163598   1.979   0.380   7.050 -0.5161  0.2992  1.2203
21140SOL    HW263599   2.066   0.471   7.153  0.6819  1.2802 -0.6004
21141SOL     OW63600   6.745   5.319   4.562  0.8806  0.5596  0.1340
21141SOL    HW163601   6.709   5.234   4.523 -0.3367  1.5559 -0.9771
21141SOL    HW263602   6.802   5.297   4.642  0.7485 -1.2987 -0.2369
21142SOL     OW63603   8.427   0.745   0.362 -0.6308  0.3826 -0.1729
21142SOL    HW163604   8.517   0.782   0.338 -0.5530 -0.0540 -0.5656
21142SOL    HW263605   8.439   0.665   0.421 -0.8255  1.6806  1.7134
21143SOL     OW63606   2.665   8.524   8.196 -0.3242  0.2937  0.0058
21143SOL    HW163607   2.695   8.608   8.150  0.1507  0.4991  0.6733
21143SOL    HW263608   2.726   8.505   8.273 -0.5308 -0.5743 -0.0373
21144SOL     OW63609   8.046   5.204   0.930  0.4448 -0.2020 -0.1476
21144SOL    HW163610   8.014   5.298   0.943 -1.0351 -0.8606  1.2455
21144SOL    HW263611   8.132   5.191   0.980  1.4626  0.7641 -1.5380
21145SOL     OW63612   4.044   5.457   0.739  0.6207  0.3828 -0.3484
21145SOL    HW163613   4.026   5.436   0.643  0.5257 -0.4179 -0.1600
21145SOL    HW263614   4.133   5.503   0.746 -0.4584  2.7572 -1.0853
21146SOL     OW63615   8.367   1.431   2.885 -0.4844  0.0118  0.8398
21146SOL    HW163616   8.459   1.468   2.871 -1.1579  1.0672 -1.2903
21146SOL    HW263617   8.321   1.424   2.796 -2.1925 -1.2409  1.7819
21147SOL     OW63618   0.634   6.957   7.683  0.1936 -0.0839  0.1072
21147SOL    HW163619   0.642   7.057   7.678  0.4281 -0.0019  1.5234
21147SOL    HW263620   0.722   6.916   7.659  1.1558  0.2409  2.7237
21148SOL     OW63621   0.868   6.653   0.542  0.9521  0.9541 -0.0174
21148SOL    HW163622   0.866   6.591   0.620  0.7650  1.2653  0.2260
21148SOL    HW263623   0.775   6.685   0.522  0.1201 -2.5940 -3.1684
21149SOL     OW63624   7.608   0.084   6.697 -0.0659  0.3071 -0.1681
21149SOL    HW163625   7.662   0.072   6.780 -1.3667  0.5039  0.7407
21149SOL    HW263626   7.552   0.166   6.705 -2.3533 -1.1719  0.0108
21150SOL     OW63627   4.791   3.892   5.093  0.2506 -0.2451 -0.0985
21150SOL    HW163628   4.709   3.834   5.088 -0.1072  0.2716 -0.2767
21150SOL    HW263629   4.871   3.834   5.104  0.0920 -0.8904 -2.0510
21151SOL     OW63630   7.206   3.440   8.687 -0.4090 -0.3447 -0.2044
21151SOL    HW163631   7.229   3.354   8.733  1.7402 -0.3221 -1.1164
21151SOL    HW263632   7.283   3.503   8.693 -1.8066  1.4388  0.1328
21152SOL     OW63633   0.733   6.955   5.376  0.5833  0.2703  0.2926
21152SOL    HW163634   0.724   6.856   5.368  3.4363 -0.0858  0.1952
21152SOL    HW263635   0.716   6.997   5.287 -0.7800 -0.0857  0.3663
21153SOL     OW63636   4.344   3.088   6.052  0.2735 -0.1105  0.1632
21153SOL    HW163637   4.359   2.995   6.018  1.1753 -0.4263  1.3897
21153SOL    HW263638   4.293   3.084   6.138 -1.7970  0.6733 -0.9374
21154SOL     OW63639   1.113   7.784   4.611  0.1756  0.1817 -0.1030
21154SOL    HW163640   1.122   7.854   4.681 -2.2936  2.1382 -1.5691
21154SOL    HW263641   1.102   7.827   4.522 -0.5163 -2.1075 -1.1955
21155SOL     OW63642   1.189   3.080   4.536  0.0682 -0.0617  0.0978
21155SOL    HW163643   1.266   3.138   4.564  1.2767 -1.7930  0.5054
21155SOL    HW263644   1.151   3.115   4.450  0.9066  1.1926  0.2139
21156SOL     OW63645   4.099   7.710   8.106 -0.2727  0.1670  0.0456
21156SOL    HW163646   4.021   7.651   8.128  0.5028 -0.5745  0.8747
21156SOL    HW263647   4.125   7.761   8.187 -0.2227  0.8101 -0.3747
21157SOL     OW63648   5.308   7.284   7.239 -0.4759 -0.9151  0.6998
21157SOL    HW163649   5.234   7.336   7.281 -1.3383 -2.7944  1.6270
21157SOL    HW263650   5.389   7.290   7.297 -0.6230 -0.7616  0.8936
21158SOL     OW63651   2.371   7.017   3.212  0.1894 -0.2023  0.0686
21158SOL    HW163652   2.340   6.939   3.267 -0.1139 -0.1943 -0.0917
21158SOL    HW263653   2.329   7.014   3.122  0.7325 -0.2462 -0.1908
21159SOL     OW63654   4.031   2.409   5.181 -0.2917 -0.1250  0.1978
21159SOL    HW163655   4.062   2.504   5.185 -0.6756  0.0301 -0.3457
21159SOL    HW263656   4.105   2.351   5.146 -0.8156  0.3676 -1.9092
21160SOL     OW63657   6.893   0.812   6.360  0.1111  0.3740 -0.3200
21160SOL    HW163658   6.869   0.845   6.269  0.0637  2.6017  0.4596
21160SOL    HW263659   6.992   0.799   6.366  0.1947  0.9442 -0.4615
21161SOL     OW63660   2.690   4.344   6.744 -0.3294 -0.4953  0.2028
21161SOL    HW163661   2.638   4.306   6.667  1.1145 -0.6737 -0.7230
21161SOL    HW263662   2.743   4.423   6.713 -0.0189 -0.3279  1.1191
21162SOL     OW63663   4.182   3.634   7.016  0.7540 -0.2791 -0.2193
21162SOL    HW163664   4.132   3.572   7.076  0.6156  0.0610  0.0240
21162SOL    HW263665   4.254   3.680   7.069 -0.3490  1.1726  0.0961
21163SOL     OW63666   8.557   0.295   0.850 -0.2067 -0.0321 -0.1830
21163SOL    HW163667   8.600   0.216   0.893  1.1489  0.1805 -1.0856
21163SOL    HW263668   8.582   0.298   0.753 -1.2146  0.8457 -0.4422
21164SOL     OW63669   5.336   0.338   3.528 -0.3549  0.6776 -1.0682
21164SOL    HW163670   5.335   0.291   3.440 -0.3513 -2.1369  0.3303
21164SOL    HW263671   5.426   0.330   3.570 -0.1656  2.5381 -1.0248
21165SOL     OW63672   1.967   7.685   0.681 -0.1838 -0.2161 -0.5429
21165SOL    HW163673   1.883   7.637   0.653 -0.0010 -0.1783 -1.1743
21165SOL    HW263674   1.986   7.666   0.778 -0.6118 -0.6791 -0.5453
21166SOL     OW63675   2.852   0.715   7.875 -0.3497 -0.2925  1.5629
21166SOL    HW163676   2.939   0.759   7.897 -0.0012 -1.1896  2.0488
21166SOL    HW263677   2.829   0.733   7.779  0.9298 -0.9419  1.1157
21167SOL     OW63678   0.228   4.933   7.091 -0.6964  0.1098 -0.2732
21167SOL    HW163679   0.322   4.903   7.075 -0.3716  1.5325 -1.2891
21167SOL    HW263680   0.164   4.870   7.046 -0.1344 -0.0280 -0.9028
21168SOL     OW63681   6.670   0.496   1.602  0.0295  0.1514 -0.0856
21168SOL    HW163682   6.697   0.487   1.507  1.2202  0.9493  0.1626
21168SOL    HW263683   6.573   0.472   1.612 -0.4498  1.2959 -1.6956
21169SOL     OW63684   3.672   7.760   1.936  0.2373 -0.2932  0.3066
21169SOL    HW163685   3.619   7.715   2.008  1.2532  1.1045  2.0310
21169SOL    HW263686   3.753   7.803   1.977  0.7996  0.6461 -1.6815
21170SOL     OW63687   6.506   4.290   1.981  0.1227  0.0662 -0.2526
21170SOL    HW163688   6.510   4.190   1.972  1.0525  0.1442 -0.7779
21170SOL    HW263689   6.595   4.325   2.011 -0.1593  0.7492 -0.1927
21171SOL     OW63690   1.543   2.835   7.109  0.5468  0.2499 -0.5525
21171SOL    HW163691   1.546   2.756   7.169  2.3606  0.7665  0.0971
21171SOL    HW263692   1.453   2.841   7.066 -0.5432 -0.5826  1.4858
21172SOL     OW63693   4.692   4.284   7.388  0.0877 -0.0870  0.3487
21172SOL    HW163694   4.788   4.276   7.362 -0.1858  0.0820 -0.7871
21172SOL    HW263695   4.636   4.233   7.324 -0.6384  0.4287  0.5552
21173SOL     OW63696   7.073   4.194   1.368 -0.0261  0.4211 -0.1960
21173SOL    HW163697   7.152   4.241   1.329  0.1327  1.2061  1.0205
21173SOL    HW263698   7.057   4.109   1.317 -1.0202  2.2519 -3.1836
21174SOL     OW63699   4.676   7.645   2.967  0.6478  0.3980 -0.2025
21174SOL    HW163700   4.742   7.658   3.042  1.6177 -1.5752 -0.6439
21174SOL    HW263701   4.712   7.686   2.884  0.5322  0.7816 -0.0651
21175SOL     OW63702   5.317   2.903   2.119 -0.3129  0.0782  0.9487
21175SOL    HW163703   5.369   2.834   2.169 -1.0748 -2.5762 -1.6473
21175SOL    HW263704   5.236   2.861   2.078 -1.8110  2.9604  0.6551
21176SOL     OW63705   8.850   1.199   8.769  0.2733  0.0426 -0.2300
21176SOL    HW163706   8.880   1.270   8.705  1.9683 -0.8097 -0.4479
21176SOL    HW263707   8.873   1.227   8.863  0.6560 -0.0627 -0.2888
21177SOL     OW63708   6.643   5.022   3.910  0.0031  0.9268 -0.1224
21177SOL    HW163709   6.716   5.041   3.845  1.7275  0.3608  1.5751
21177SOL    HW263710   6.650   4.928   3.942 -1.6324  0.7904 -0.0752
21178SOL     OW63711   0.434   1.591   5.078 -0.0678  0.1089  0.4801
21178SOL    HW163712   0.475   1.668   5.029  0.9819 -0.3077  0.6783
21178SOL    HW263713   0.376   1.626   5.152 -0.8325  0.7202 -0.3855
21179SOL     OW63714   0.808   4.676   3.473 -0.3434 -0.3918  0.9068
21179SOL    HW163715   0.785   4.591   3.522 -2.9570 -1.1101 -1.2784
21179SOL    HW263716   0.815   4.657   3.375  1.1610  1.5960  0.5709
21180SOL     OW63717   3.234   3.491   2.239  0.1695  0.1429 -0.2823
21180SOL    HW163718   3.201   3.489   2.333  1.0765  1.9566  0.1123
21180SOL    HW263719   3.286   3.407   2.220 -0.4139 -0.4502  0.6555
21181SOL     OW63720   7.936   6.431   4.978 -0.1938 -0.4471 -0.3027
21181SOL    HW163721   7.846   6.424   4.935 -0.9566  1.0491  0.9697
21181SOL    HW263722   7.930   6.490   5.058  2.6381  2.6184 -2.1266
21182SOL     OW63723   5.184   1.588   3.222  0.3965  0.9832  0.1643
21182SOL    HW163724   5.113   1.590   3.292 -0.6436  4.7215 -0.7510
21182SOL    HW263725   5.274   1.589   3.265 -0.1965  1.9218  1.4296
21183SOL     OW63726   8.158   1.120   7.307 -0.0393  0.4923 -0.1079
21183SOL    HW163727   8.177   1.175   7.387 -0.6936  1.6198 -0.7069
21183SOL    HW263728   8.080   1.158   7.257  0.7148  0.1699 -1.6002
21184SOL     OW63729   8.030   2.490   3.220  0.4310 -0.1479 -0.2783
21184SOL    HW163730   7.984   2.447   3.298 -0.2244 -1.3670 -1.2955
21184SOL    HW263731   7.971   2.562   3.183  0.2934 -0.2585 -0.2747
21185SOL     OW63732   0.748   8.233   0.529  0.0230 -0.0481  0.8629
21185SOL    HW163733   0.802   8.312   0.556  0.6600  0.5764 -1.9647
21185SOL    HW263734   0.808   8.158   0.502 -0.4713  0.0394 -0.6019
21186SOL     OW63735   6.456   8.360   5.695  0.4519  0.1868  0.6697
21186SOL    HW163736   6.542   8.397   5.731 -0.1497 -0.0876  2.4781
21186SOL    HW263737   6.398   8.436   5.664  0.3857  0.5716  1.6927
21187SOL     OW63738   0.909   3.292   0.610  0.4954  0.7818  0.1174
21187SOL    HW163739   0.992   3.239   0.627 -0.3228 -0.8965 -0.7986
21187SOL    HW263740   0.847   3.282   0.689  0.3326  0.3248 -0.0632
21188SOL     OW63741   4.950   6.732   4.787 -0.0280  0.5667 -0.0289
21188SOL    HW163742   4.917   6.758   4.697  0.2684  1.8503  0.2118
21188SOL    HW263743   4.921   6.639   4.808 -0.7448  0.5313 -1.1263
21189SOL     OW63744   1.965   1.960   2.423 -0.1988 -0.2620 -0.0048
21189SOL    HW163745   1.940   1.963   2.326 -0.1618 -1.3146 -0.0632
21189SOL    HW263746   1.903   1.897   2.471 -0.5069  0.6016  0.7469
21190SOL     OW63747   5.717   5.455   1.697 -0.0439 -0.3315  0.0001
21190SOL    HW163748   5.784   5.428   1.628 -0.5916  2.4301 -1.7727
21190SOL    HW263749   5.626   5.454   1.658 -0.5266  0.1453  1.0685
21191SOL     OW63750   1.040   2.799   8.423 -0.2786  0.1989 -0.0671
21191SOL    HW163751   0.969   2.743   8.465 -0.3632  1.4450  1.5148
21191SOL    HW263752   1.065   2.760   8.334 -3.8039  0.3728 -1.2906
21192SOL     OW63753   7.498   4.309   0.181 -0.1629 -0.2066  0.4357
21192SOL    HW163754   7.566   4.347   0.244  0.5245  0.4121 -0.6628
21192SOL    HW263755   7.458   4.226   0.222  1.5957 -0.8737  0.8834
21193SOL     OW63756   1.007   5.718   3.974 -0.0357  0.5587  0.0588
21193SOL    HW163757   1.078   5.664   4.019  1.1965  1.1873 -1.0596
21193SOL    HW263758   0.960   5.662   3.906  1.3505  0.8558 -1.2202
21194SOL     OW63759   1.788   7.498   7.102 -0.1084  0.6218 -0.1921
21194SOL    HW163760   1.879   7.533   7.125 -0.7635  1.9929  0.3925
21194SOL    HW263761   1.721   7.571   7.111 -1.2937 -0.3936 -0.5515
21195SOL     OW63762   6.757   3.673   8.143 -1.0582 -0.6892 -0.1294
21195SOL    HW163763   6.834   3.728   8.172  0.1469 -2.5191  0.3238
21195SOL    HW263764   6.683   3.680   8.211 -0.4715 -0.5437  0.5013
21196SOL     OW63765   6.495   6.249   4.455 -0.3133 -0.3374  0.0922
21196SOL    HW163766   6.474   6.345   4.439 -2.7248 -0.5081  1.7886
21196SOL    HW263767   6.564   6.242   4.527 -0.4353  0.1064  0.2543
21197SOL     OW63768   2.759   3.400   6.531 -0.2748  0.0990 -0.0851
21197SOL    HW163769   2.855   3.373   6.523 -0.4658 -0.8394  0.6584
21197SOL    HW263770   2.710   3.371   6.448 -0.0038  0.2080 -0.2846
21198SOL     OW63771   2.604   1.333   3.267 -0.2517 -0.0671  0.1080
21198SOL    HW163772   2.613   1.428   3.239  2.2185 -0.3747 -0.3739
21198SOL    HW263773   2.601   1.274   3.185  0.1639 -0.5165  0.4088
21199SOL     OW63774   5.747   0.613   3.893  0.2407 -0.3606  0.1933
21199SOL    HW163775   5.769   0.519   3.867  0.1390  0.0615 -1.5554
21199SOL    HW263776   5.665   0.642   3.844  0.1811  0.6000  0.8418
21200SOL     OW63777   5.968   8.311   3.203  0.1160  0.6207 -0.1006
21200SOL    HW163778   5.901   8.379   3.175  0.6857  0.7953 -1.0743
21200SOL    HW263779   6.035   8.354   3.265 -0.6708  0.4319  0.9153
21201SOL     OW63780   4.468   2.413   3.672  0.2066 -0.1574 -0.1202
21201SOL    HW163781   4.514   2.366   3.597 -0.8102  0.0615 -0.9034
21201SOL    HW263782   4.419   2.492   3.636 -0.5054 -0.1900  0.7500
21202SOL     OW63783   1.055   0.030   3.958 -0.4505 -0.0982 -0.4383
21202SOL    HW163784   1.025  -0.042   3.896  2.1073 -1.9046  0.2381
21202SOL    HW263785   1.081   0.111   3.905  0.7162 -1.2393 -1.6802
21203SOL     OW63786   5.848   0.132   7.577  0.0690  0.3888 -0.3911
21203SOL    HW163787   5.835   0.112   7.480 -0.2810  1.7723 -0.6545
21203SOL    HW263788   5.810   0.222   7.598  0.0515  0.0754  1.0603
21204SOL     OW63789   4.561   7.497   4.969 -0.4715 -0.8993  0.5105
21204SOL    HW163790   4.538   7.421   4.908  0.1776 -1.3213  0.7807
21204SOL    HW263791   4.480   7.523   5.021 -1.1348 -0.2946 -0.7744
21205SOL     OW63792   8.134   2.220   1.874  0.0595 -0.1510 -0.0636
21205SOL    HW163793   8.123   2.220   1.775 -1.0139  0.2944  0.0341
21205SOL    HW263794   8.106   2.132   1.911 -0.7622  0.0985 -0.0596
21206SOL     OW63795   4.841   0.447   8.170  0.0017  0.0624 -0.2426
21206SOL    HW163796   4.817   0.351   8.188  1.3292  0.1053  2.0619
21206SOL    HW263797   4.794   0.477   8.086 -1.2646 -2.2650 -0.4690
21207SOL     OW63798   4.091   8.028   6.352  0.0814  0.4715  0.2651
21207SOL    HW163799   4.028   7.968   6.400 -0.8548  1.5568  0.4523
21207SOL    HW263800   4.040   8.106   6.314  0.8393 -0.0717 -2.0748
21208SOL     OW63801   7.588   3.861   0.522 -0.6723  0.3346  0.3991
21208SOL    HW163802   7.652   3.911   0.580 -1.4776  2.6620 -0.6057
21208SOL    HW263803   7.497   3.900   0.532 -1.7081 -1.9414  0.6626
21209SOL     OW63804   6.659   7.184   8.358  0.3762 -0.1067 -0.2833
21209SOL    HW163805   6.576   7.187   8.302  0.6434  1.1569 -0.6360
21209SOL    HW263806   6.649   7.245   8.437  1.6766  1.6281 -1.3833
21210SOL     OW63807   8.430   4.262   5.665 -0.0457 -0.5849  0.7273
21210SOL    HW163808   8.457   4.242   5.571  1.7820  0.0929  1.0689
21210SOL    HW263809   8.330   4.258   5.673 -0.1504 -2.0839 -0.8842
21211SOL     OW63810   4.838   8.551   1.183  0.7433 -0.2695 -0.4093
21211SOL    HW163811   4.849   8.531   1.280  1.9519 -0.4710 -0.5704
21211SOL    HW263812   4.745   8.530   1.154  0.8598 -1.8982  0.3164
21212SOL     OW63813   8.611   1.757   2.613 -0.0322  0.2231  0.3601
21212SOL    HW163814   8.625   1.807   2.698  1.3895 -0.1129  0.3523
21212SOL    HW263815   8.592   1.661   2.634 -0.3418  0.2748  0.3155
21213SOL     OW63816   2.806   0.960   5.062  0.2081  0.4147 -0.2274
21213SOL    HW163817   2.789   0.874   5.014 -1.4287  0.9709 -0.7372
21213SOL    HW263818   2.900   0.991   5.044  0.9970 -1.4905  0.4032
21214SOL     OW63819   8.310   6.108   4.101 -0.1321 -0.0476  0.0829
21214SOL    HW163820   8.278   6.045   4.030  2.0254 -1.4680  0.2684
21214SOL    HW263821   8.253   6.097   4.183 -2.3924  1.3272 -1.2367
21215SOL     OW63822   6.246   8.241   7.677 -0.2184  0.4438 -0.2914
21215SOL    HW163823   6.275   8.264   7.770 -0.5233 -1.6192  0.3799
21215SOL    HW263824   6.151   8.268   7.664 -0.6009 -0.4454  0.5025
21216SOL     OW63825   3.762   6.141   0.338 -0.3861  0.4437 -0.0763
21216SOL    HW163826   3.814   6.059   0.313  0.2356  0.8839 -0.2436
21216SOL    HW263827   3.825   6.217   0.352 -1.1261  1.6265 -2.6920
21217SOL     OW63828   5.222   7.626   2.906  0.1389 -0.3408  0.1566
21217SOL    HW163829   5.199   7.583   2.819 -0.6364  0.0466  0.1646
21217SOL    HW263830   5.286   7.568   2.956 -0.3139 -1.1205 -0.1582
21218SOL     OW63831   1.075   5.138   1.167  0.1582 -0.1373 -0.5825
21218SOL    HW163832   1.042   5.232   1.175  1.4518  0.1699  2.6742
21218SOL    HW263833   1.000   5.078   1.140 -1.4489  1.4099  0.2470
21219SOL     OW63834   3.459   1.235   1.712  0.0730 -0.3112  0.1700
21219SOL    HW163835   3.500   1.147   1.684 -1.3078 -1.3220  1.1890
21219SOL    HW263836   3.393   1.219   1.785  1.1231  1.8336  1.6900
21220SOL     OW63837   0.064   5.775   1.130 -0.1161  0.1334  0.4407
21220SOL    HW163838   0.004   5.807   1.057 -0.9866 -1.4609  0.4035
21220SOL    HW263839   0.158   5.771   1.097 -0.4641 -0.3293 -0.5201
21221SOL     OW63840   2.342   3.481   6.992  0.0213 -0.2606 -0.0788
21221SOL    HW163841   2.322   3.558   6.931 -1.5854 -0.1774  0.4974
21221SOL    HW263842   2.403   3.512   7.065  0.6614  0.0480 -0.7353
21222SOL     OW63843   5.311   6.905   6.733  0.0628 -0.2219  0.0149
21222SOL    HW163844   5.390   6.961   6.755 -0.0842 -0.3426  0.8990
21222SOL    HW263845   5.260   6.884   6.817 -0.7103 -0.4366 -0.4915
21223SOL     OW63846   8.710   6.334   4.783  0.3065  0.2506  0.2468
21223SOL    HW163847   8.662   6.391   4.849 -0.1823  0.0642  0.0560
21223SOL    HW263848   8.806   6.324   4.811  1.1258  3.3080 -1.0574
21224SOL     OW63849   7.205   1.371   5.961 -0.0517 -1.0415 -0.3282
21224SOL    HW163850   7.198   1.281   5.918  0.9313 -0.2371 -2.2691
21224SOL    HW263851   7.276   1.425   5.916 -0.7510  0.8036  0.6533
21225SOL     OW63852   7.862   5.639   5.739 -0.1481  0.8080 -0.4210
21225SOL    HW163853   7.922   5.709   5.701  0.1516  0.9203  0.2377
21225SOL    HW263854   7.767   5.661   5.718 -0.2006  2.3449  1.2190
21226SOL     OW63855   0.782   2.503   7.442  0.9169 -0.4280  0.5829
21226SOL    HW163856   0.753   2.572   7.508 -0.0168  0.8079 -1.0553
21226SOL    HW263857   0.879   2.482   7.455  1.1902  1.1140  1.1772
21227SOL     OW63858   1.980   7.601   1.519 -0.0187  0.0626 -0.1806
21227SOL    HW163859   1.891   7.574   1.481  0.1226  1.1584 -1.3527
21227SOL    HW263860   2.009   7.533   1.587 -1.0604 -1.0958 -0.8474
21228SOL     OW63861   6.645   7.546   6.959 -0.2629  0.1981  0.6730
21228SOL    HW163862   6.741   7.569   6.978 -0.1534  0.5075 -0.2168
21228SOL    HW263863   6.609   7.607   6.889 -0.4866 -1.2265 -0.5164
21229SOL     OW63864   2.298   8.559   3.389 -0.4336  0.2454  0.0587
21229SOL    HW163865   2.244   8.616   3.451 -0.3509 -1.0243  1.3643
21229SOL    HW263866   2.366   8.615   3.342 -0.6871  1.3008  0.9061
21230SOL     OW63867   3.834   8.618   0.519 -0.0915  0.1820 -0.6781
21230SOL    HW163868   3.883   8.674   0.452 -0.5416  0.9556 -0.3612
21230SOL    HW263869   3.837   8.522   0.490  1.3496  0.2472 -0.8282
21231SOL     OW63870   1.841   5.590   6.575  0.0322 -0.2876 -0.0595
21231SOL    HW163871   1.802   5.661   6.633  1.7987  0.4485  0.3002
21231SOL    HW263872   1.770   5.524   6.550 -1.7438  1.7299 -0.6482
21232SOL     OW63873   5.357   0.206   4.916  0.2110 -0.0278  0.0149
21232SOL    HW163874   5.368   0.230   4.820  3.7346 -0.8232  0.1022
21232SOL    HW263875   5.432   0.246   4.969 -1.1872 -0.3117  2.3365
21233SOL     OW63876   2.051   7.158   5.827 -0.1082 -0.9040  0.1131
21233SOL    HW163877   1.961   7.170   5.784  0.1955 -0.4286 -0.4053
21233SOL    HW263878   2.050   7.200   5.918 -0.0237  0.2911 -0.4165
21234SOL     OW63879   3.784   4.478   3.295  0.3169  0.3550  0.0352
21234SOL    HW163880   3.819   4.421   3.369 -0.3249  0.3538  0.3411
21234SOL    HW263881   3.807   4.435   3.207 -0.0488 -0.3231  0.2570
21235SOL     OW63882   1.023   8.416   2.454 -0.1836 -0.1628  0.2311
21235SOL    HW163883   1.002   8.506   2.491  0.8490  0.0283  0.3974
21235SOL    HW263884   1.059   8.357   2.527 -0.0621 -0.4335 -0.0439
21236SOL     OW63885   4.031   3.009   4.257  0.4485 -0.2023 -0.4295
21236SOL    HW163886   4.098   2.959   4.311 -1.2423  0.0841  2.1125
21236SOL    HW263887   3.946   2.957   4.253 -0.7373  1.5468  0.6423
21237SOL     OW63888   0.494   1.228   6.652  0.2481 -0.4638 -0.3902
21237SOL    HW163889   0.578   1.250   6.703  0.2000 -0.4893 -0.2994
21237SOL    HW263890   0.504   1.257   6.557 -0.7345  2.2200  0.2493
21238SOL     OW63891   7.558   4.041   8.774 -0.2010  0.2901  0.3773
21238SOL    HW163892   7.599   3.977   8.839  0.8843 -0.1869 -0.7325
21238SOL    HW263893   7.602   4.131   8.784 -0.2613  0.3035  0.5214
21239SOL     OW63894   1.065   6.032   8.484 -0.0153  0.5567 -0.2088
21239SOL    HW163895   1.014   5.985   8.557 -0.0704  0.9057 -0.0197
21239SOL    HW263896   1.145   5.976   8.458 -0.8974 -0.3618 -1.0439
21240SOL     OW63897   8.461   1.126   6.923 -0.2496  0.2402 -0.3735
21240SOL    HW163898   8.530   1.057   6.944 -0.8348 -0.5770 -1.0681
21240SOL    HW263899   8.455   1.139   6.824  0.2755  1.7445 -0.2336
21241SOL     OW63900   6.945   0.071   2.009 -0.0467  0.0674  0.5555
21241SOL    HW163901   7.032   0.115   2.032 -1.1337  2.4402  0.3740
21241SOL    HW263902   6.960  -0.028   2.000  2.6189  0.3841  0.4988
21242SOL     OW63903   5.568   0.510   0.916 -0.2518  0.1503 -0.2468
21242SOL    HW163904   5.589   0.574   0.990 -0.2948 -0.4480  0.2966
21242SOL    HW263905   5.591   0.552   0.828  0.9818  0.4225  0.1772
21243SOL     OW63906   3.947   2.003   1.948 -0.4067  0.5006 -0.3635
21243SOL    HW163907   3.919   1.968   2.038  1.7386  2.8008  1.3504
21243SOL    HW263908   3.927   2.101   1.943  1.4412  0.8649 -1.5073
21244SOL     OW63909   7.573   2.223   1.383  0.1508  0.0751  0.3812
21244SOL    HW163910   7.513   2.152   1.346  1.0658 -0.4899 -0.0725
21244SOL    HW263911   7.521   2.285   1.440 -1.0967  0.2775 -0.9287
21245SOL     OW63912   5.754   1.312   3.829  0.3528 -0.0234  0.3977
21245SOL    HW163913   5.792   1.329   3.738  1.2891 -0.9046  0.6026
21245SOL    HW263914   5.827   1.278   3.889 -0.3422  0.1578  1.3660
21246SOL     OW63915   8.455   4.508   4.329  0.0168  0.3252 -0.7001
21246SOL    HW163916   8.536   4.490   4.384 -0.8798 -0.7110  0.3354
21246SOL    HW263917   8.373   4.482   4.380 -0.8874 -0.0457 -2.2595
21247SOL     OW63918   6.829   7.131   2.481  0.0701  0.3838 -0.0645
21247SOL    HW163919   6.870   7.185   2.406 -3.6681  2.8845 -0.6003
21247SOL    HW263920   6.883   7.142   2.564  1.9795  1.1198 -1.3464
21248SOL     OW63921   3.556   7.584   3.019  0.4761 -0.0255 -0.4881
21248SOL    HW163922   3.462   7.592   2.984  0.0054 -0.7322  0.5612
21248SOL    HW263923   3.603   7.671   3.008 -0.5390  0.5594 -0.3488
21249SOL     OW63924   3.371   8.223   2.450 -1.0517  0.3013  0.2322
21249SOL    HW163925   3.405   8.306   2.495 -2.1924  0.9310 -0.0314
21249SOL    HW263926   3.287   8.193   2.495 -1.3217  0.0084 -0.4557
21250SOL     OW63927   2.134   5.113   4.524  0.0490  0.2247  0.0504
21250SOL    HW163928   2.112   5.030   4.472 -0.5356 -0.8490  1.8964
21250SOL    HW263929   2.116   5.194   4.467 -2.1471 -0.8212 -0.8731
21251SOL     OW63930   5.945   1.088   2.394  0.4270  0.3373  0.2311
21251SOL    HW163931   5.919   1.128   2.306 -0.6898  0.2472  0.5028
21251SOL    HW263932   5.909   1.145   2.468 -0.5672 -0.7574  0.6224
21252SOL     OW63933   8.419   7.526   2.813  0.1736 -0.0481  0.0068
21252SOL    HW163934   8.473   7.601   2.850  3.7104 -1.8271 -1.0511
21252SOL    HW263935   8.409   7.538   2.714 -0.3224 -0.3368  0.0226
21253SOL     OW63936   7.013   5.503   2.523  0.3373 -0.4232  0.0481
21253SOL    HW163937   6.984   5.465   2.611 -1.7695  0.9916  0.0422
21253SOL    HW263938   6.941   5.562   2.487  1.6297 -0.0449 -2.0987
21254SOL     OW63939   8.282   1.311   5.085 -0.0274  0.0265 -0.4034
21254SOL    HW163940   8.255   1.214   5.083  0.6049 -0.2088  1.0130
21254SOL    HW263941   8.379   1.317   5.110  0.9258  0.9032 -3.8018
21255SOL     OW63942   3.376   5.657   2.128  0.6176  0.3534 -0.7086
21255SOL    HW163943   3.454   5.606   2.093  0.6447  0.0296 -0.1905
21255SOL    HW263944   3.313   5.594   2.174  1.1169  0.9084  0.7775
21256SOL     OW63945   5.515   4.205   8.587  0.1383  0.1688  0.2086
21256SOL    HW163946   5.466   4.278   8.539 -1.2413 -0.4029  0.7206
21256SOL    HW263947   5.528   4.230   8.683 -1.2954 -0.6894  0.6500
21257SOL     OW63948   0.300   2.762   2.862  0.7138  0.0093  0.2088
21257SOL    HW163949   0.378   2.775   2.801  1.4026  0.2956  1.1356
21257SOL    HW263950   0.330   2.716   2.946 -0.3795 -1.1766 -0.0184
21258SOL     OW63951   2.246   6.833   3.004  0.0451  0.0521  0.3740
21258SOL    HW163952   2.250   6.813   2.906  0.3011 -2.2056  0.8057
21258SOL    HW263953   2.325   6.792   3.050 -0.9138 -0.3219  1.7439
21259SOL     OW63954   7.958   8.759   6.940 -0.1827  0.3859  0.3199
21259SOL    HW163955   8.002   8.820   7.006  1.7396 -0.9464  0.3587
21259SOL    HW263956   7.933   8.673   6.985 -0.9566  0.3369 -0.1826
21260SOL     OW63957   8.167   4.379   1.741  0.3281  0.0209  0.0556
21260SOL    HW163958   8.159   4.377   1.841 -0.3793  2.3518  0.1024
21260SOL    HW263959   8.214   4.462   1.713  0.4657 -0.5766 -1.5704
21261SOL     OW63960   1.108   5.756   5.774 -0.4506  0.1606 -0.0428
21261SOL    HW163961   1.027   5.697   5.782 -1.1181  0.5515 -2.9320
21261SOL    HW263962   1.188   5.700   5.749  0.5231 -0.3654  3.6877
21262SOL     OW63963   4.212   1.021   8.809 -0.0728  0.2426  0.1526
21262SOL    HW163964   4.234   1.069   8.894 -1.3006  0.3976  0.3969
21262SOL    HW263965   4.285   0.956   8.787  1.2332  1.6511  0.2327
21263SOL     OW63966   0.159   2.091   3.125  0.7775  0.2383  0.2124
21263SOL    HW163967   0.105   2.045   3.055  1.0117 -0.0354  0.2133
21263SOL    HW263968   0.161   2.035   3.208  0.4235  0.6016  0.4731
21264SOL     OW63969   8.305   1.862   5.671 -0.0413  0.3418  0.6904
21264SOL    HW163970   8.405   1.859   5.669 -0.0464 -0.2381  1.1859
21264SOL    HW263971   8.269   1.809   5.594  0.0195 -1.2987  1.7548
21265SOL     OW63972   8.826   2.461   4.841 -0.4080  0.6943  0.4185
21265SOL    HW163973   8.779   2.514   4.912 -1.5678  0.7472 -0.3610
21265SOL    HW263974   8.863   2.524   4.772  0.3074  0.6123  0.7117
21266SOL     OW63975   0.097   6.643   2.679  0.0866 -0.3724 -0.2821
21266SOL    HW163976   0.002   6.668   2.697 -0.5127 -2.7113  0.2218
21266SOL    HW263977   0.130   6.585   2.753  2.0973  0.7960 -0.2194
21267SOL     OW63978   0.665   4.148   3.156 -0.2677 -0.2013  0.2882
21267SOL    HW163979   0.574   4.188   3.155 -0.0412  0.4292 -2.1570
21267SOL    HW263980   0.662   4.057   3.114  0.1786 -0.2844  0.4289
21268SOL     OW63981   3.541   3.125   1.661  0.5206  0.6907  0.5114
21268SOL    HW163982   3.526   3.129   1.562  2.3878  1.2465  0.2182
21268SOL    HW263983   3.612   3.190   1.686  1.1114 -0.4829  2.0164
21269SOL     OW63984   0.869   2.534   6.950 -0.1430 -0.6930 -0.0618
21269SOL    HW163985   0.940   2.557   7.016 -0.3514 -0.3169  0.0332
21269SOL    HW263986   0.803   2.472   6.993 -0.5610 -0.0390  0.2498
21270SOL     OW63987   1.050   4.562   6.326 -0.1843  0.1372 -0.6571
21270SOL    HW163988   0.994   4.605   6.256  0.1584 -0.5860 -1.3887
21270SOL    HW263989   0.993   4.504   6.384 -0.3850  0.3303 -0.6623
21271SOL     OW63990   1.853   3.394   5.042  0.2356 -0.4985 -0.1721
21271SOL    HW163991   1.912   3.387   5.123  1.9284 -2.4385 -1.4670
21271SOL    HW263992   1.907   3.427   4.965 -0.1534 -2.8275 -1.5250
21272SOL     OW63993   8.728   7.842   2.654 -0.2573 -0.4340 -0.0580
21272SOL    HW163994   8.810   7.828   2.709 -0.3410 -1.6304 -0.2163
21272SOL    HW263995   8.647   7.830   2.712 -0.3409  0.9219  0.1405
21273SOL     OW63996   6.934   8.419   6.547  0.6296 -0.4588  0.0023
21273SOL    HW163997   6.979   8.341   6.503  1.9051  0.7403 -0.9025
21273SOL    HW263998   7.002   8.476   6.593 -0.0087  1.0573 -0.8402
21274SOL     OW63999   1.881   1.221   6.667  0.3778  0.3150 -0.1729
21274SOL    HW164000   1.835   1.308   6.684 -1.8019 -0.6756 -0.7172
21274SOL    HW264001   1.832   1.148   6.713  3.5875 -0.4324  2.4207
21275SOL     OW64002   8.577   3.848   3.296 -0.7522 -0.2696 -0.1788
21275SOL    HW164003   8.499   3.910   3.301  0.0237  0.7313  0.0596
21275SOL    HW264004   8.597   3.811   3.386 -2.3340 -2.3579 -0.6238
21276SOL     OW64005   1.604   5.163   7.194  0.0472  0.9665  0.2131
21276SOL    HW164006   1.683   5.162   7.255  1.0196  0.7088 -1.0026
21276SOL    HW264007   1.599   5.075   7.146  0.8960  2.0516 -2.0003
21277SOL     OW64008   6.419   1.709   6.496  0.1326 -0.2068  0.1808
21277SOL    HW164009   6.437   1.702   6.398 -0.5310 -1.5257  0.1327
21277SOL    HW264010   6.476   1.644   6.546  1.6772  1.5854  0.8702
21278SOL     OW64011   3.818   7.813   2.795  0.3117  0.2521  0.2432
21278SOL    HW164012   3.739   7.838   2.850  0.4195 -1.5239  1.2643
21278SOL    HW264013   3.892   7.878   2.811  0.7166 -0.7910  3.0634
21279SOL     OW64014   3.674   7.922   8.668  0.3978  0.3303  0.6673
21279SOL    HW164015   3.626   7.920   8.580  0.8304 -0.0785  0.4318
21279SOL    HW264016   3.661   8.011   8.711 -0.7834  0.1457  0.7331
21280SOL     OW64017   2.670   8.253   2.762  0.4374  0.5709  0.3474
21280SOL    HW164018   2.690   8.183   2.830  0.0662  0.8075  0.7051
21280SOL    HW264019   2.680   8.343   2.803 -1.8351  0.7200  0.7274
21281SOL     OW64020   6.762   0.924   5.483  0.2518 -0.1981  0.5907
21281SOL    HW164021   6.861   0.929   5.466  0.6461  1.4337  2.9219
21281SOL    HW264022   6.745   0.886   5.573 -1.1853  0.6293  0.7015
21282SOL     OW64023   2.257   1.995   7.740  0.3663 -0.1225 -0.1213
21282SOL    HW164024   2.201   1.932   7.685  0.8452 -0.5551 -0.1141
21282SOL    HW264025   2.247   1.973   7.837 -0.0083  0.2598 -0.0692
21283SOL     OW64026   1.674   7.577   8.682 -0.0663  0.7852 -0.0965
21283SOL    HW164027   1.727   7.563   8.598  0.6503 -0.9996  0.6014
21283SOL    HW264028   1.735   7.569   8.761 -1.2532 -0.6625  0.6978
21284SOL     OW64029   5.792   3.253   3.063  0.4753  0.2529 -0.3082
21284SOL    HW164030   5.880   3.281   3.026  0.7791 -1.1377 -0.7134
21284SOL    HW264031   5.806   3.189   3.139 -0.1828  1.1130  0.5689
21285SOL     OW64032   4.503   5.041   6.461  0.4305 -0.4461  0.0548
21285SOL    HW164033   4.523   5.035   6.363 -1.4294 -0.0981 -0.3885
21285SOL    HW264034   4.463   4.954   6.491  1.0545 -0.5727  0.5400
21286SOL     OW64035   3.825   5.163   4.719  0.4566 -0.0320  0.1807
21286SOL    HW164036   3.848   5.093   4.651 -0.2368  0.7137 -0.8545
21286SOL    HW264037   3.909   5.196   4.762  0.7057 -2.6613  1.9406
21287SOL     OW64038   3.891   7.571   4.373 -0.1088 -0.1514 -0.1330
21287SOL    HW164039   3.912   7.481   4.335  0.6060  0.4211 -1.1586
21287SOL    HW264040   3.956   7.638   4.337  0.4720  0.4858  1.9696
21288SOL     OW64041   7.591   4.745   0.524  0.0684  0.4236 -0.1277
21288SOL    HW164042   7.504   4.735   0.476 -0.5627 -0.5604  1.1448
21288SOL    HW264043   7.615   4.842   0.530 -2.1072  0.9435  1.4156
21289SOL     OW64044   6.245   5.667   2.074  0.4485 -0.7310  0.3409
21289SOL    HW164045   6.269   5.581   2.028  2.4660 -0.0199 -0.0047
21289SOL    HW264046   6.185   5.720   2.014  1.9911 -0.4038 -0.9880
21290SOL     OW64047   0.100   8.586   3.856  0.2105 -0.2576  0.7119
21290SOL    HW164048   0.028   8.529   3.894  0.3476 -1.0506 -0.1952
21290SOL    HW264049   0.064   8.677   3.836 -0.4062 -0.5012  0.7127
21291SOL     OW64050   6.425   1.504   3.359  0.2226  0.1123  0.7957
21291SOL    HW164051   6.332   1.537   3.344 -0.1300 -0.5569  1.4594
21291SOL    HW264052   6.432   1.465   3.451  1.3879  0.9452  1.0848
21292SOL     OW64053   6.553   4.182   5.662 -0.4612  0.5996 -0.3718
21292SOL    HW164054   6.481   4.240   5.699 -1.0119  0.3471 -1.0275
21292SOL    HW264055   6.631   4.181   5.725 -1.9848 -1.1446  1.6698
21293SOL     OW64056   6.047   1.795   3.506  0.1292  0.4002 -0.1169
21293SOL    HW164057   6.069   1.861   3.577  1.7507 -0.3232  0.0998
21293SOL    HW264058   6.049   1.840   3.417  0.8782  0.7446  0.0610
21294SOL     OW64059   3.141   3.028   1.509 -0.4487 -0.2185 -0.2447
21294SOL    HW164060   3.156   2.949   1.449 -0.1389  0.3870 -0.9845
21294SOL    HW264061   3.135   3.111   1.454 -0.9910  0.2558  0.5076
21295SOL     OW64062   7.479   0.095   8.215  0.0561 -0.3280  0.3814
21295SOL    HW164063   7.527   0.048   8.141  0.3992 -0.2933  0.5807
21295SOL    HW264064   7.545   0.125   8.284 -0.2195 -0.0227  0.5150
21296SOL     OW64065   2.560   2.789   5.157 -0.2465  0.0313  0.2013
21296SOL    HW164066   2.541   2.822   5.249  0.4666 -2.8003  1.4869
21296SOL    HW264067   2.487   2.726   5.129  0.6169 -0.8008 -0.2361
21297SOL     OW64068   2.869   5.974   2.220  0.0160 -0.2155  0.2451
21297SOL    HW164069   2.968   5.987   2.220  0.0599 -0.0762 -2.2101
21297SOL    HW264070   2.824   6.063   2.223  0.1223  0.0971 -3.2240
21298SOL     OW64071   2.752   3.476   1.818 -0.5738 -0.0466  0.0799
21298SOL    HW164072   2.803   3.416   1.758 -0.0740  0.0909  0.3654
21298SOL    HW264073   2.693   3.421   1.878 -1.3099 -0.1665 -0.7416
21299SOL     OW64074   5.317   4.575   3.280  0.6691 -0.5739  0.1361
21299SOL    HW164075   5.275   4.574   3.370  0.8172 -0.2441  0.2100
21299SOL    HW264076   5.265   4.635   3.219  0.3474 -1.0950 -0.1075
21300SOL     OW64077   1.829   3.783   3.087 -0.5575 -0.0766  0.2171
21300SOL    HW164078   1.744   3.745   3.050  0.2328 -0.8219 -0.9248
21300SOL    HW264079   1.838   3.758   3.183 -0.5268 -2.0688 -0.2448
21301SOL     OW64080   0.438   8.832   7.904 -0.1044 -0.1374  0.3238
21301SOL    HW164081   0.516   8.770   7.899  0.6406  0.6798  1.4230
21301SOL    HW264082   0.423   8.874   7.815  1.2734  0.3741  0.3223
21302SOL     OW64083   5.492   3.562   3.459 -0.2485  0.3224  0.1895
21302SOL    HW164084   5.568   3.622   3.483  1.7876 -2.1130  0.1301
21302SOL    HW264085   5.409   3.596   3.504  1.4141  1.4795  2.6638
21303SOL     OW64086   7.755   0.945   1.418 -0.2087  0.0700  0.0802
21303SOL    HW164087   7.851   0.919   1.429 -0.2979  0.1583  1.1932
21303SOL    HW264088   7.749   1.028   1.363  0.4156  0.5104  0.6510
21304SOL     OW64089   0.032   0.338   8.834  0.0212 -0.1916  0.6792
21304SOL    HW164090   0.009   0.241   8.835  2.0900 -0.8092 -1.5388
21304SOL    HW264091   0.090   0.359   8.912  1.5421 -1.3723 -0.0689
21305SOL     OW64092   7.493   8.505   6.758 -0.0631  0.1464 -0.3222
21305SOL    HW164093   7.592   8.512   6.751 -0.1059 -0.2655 -1.5106
21305SOL    HW264094   7.450   8.577   6.704 -0.4345  1.5682  1.7677
21306SOL     OW64095   7.844   1.995   7.693  0.3036  0.3763  0.2094
21306SOL    HW164096   7.874   1.909   7.735  0.3644  1.1543  1.8498
21306SOL    HW264097   7.881   2.002   7.600 -0.1254 -1.5837 -0.1450
21307SOL     OW64098   5.473   1.478   4.344  0.1443  0.1483 -0.3477
21307SOL    HW164099   5.436   1.514   4.430 -0.6565  1.2068 -1.0989
21307SOL    HW264100   5.571   1.460   4.354 -0.0276 -0.1952  0.9128
21308SOL     OW64101   7.835   8.072   7.760  0.1361 -0.1277  0.2092
21308SOL    HW164102   7.761   8.099   7.698 -0.7149  0.4028  1.4188
21308SOL    HW264103   7.881   8.153   7.795 -0.8219 -0.2851  1.9480
21309SOL     OW64104   0.094   0.084   3.388 -0.1611 -0.1311  0.0766
21309SOL    HW164105   0.073   0.161   3.328  2.1332  0.7771  0.3285
21309SOL    HW264106   0.146   0.116   3.467  1.9227 -2.0581 -0.4108
21310SOL     OW64107   4.683   8.305   1.832  0.4599  0.2608  0.5053
21310SOL    HW164108   4.781   8.292   1.817  0.0726 -1.6878 -0.6231
21310SOL    HW264109   4.663   8.299   1.930  1.5129  1.2960  0.8126
21311SOL     OW64110   0.392   6.463   1.399  0.0482  0.1935  0.3149
21311SOL    HW164111   0.311   6.514   1.370 -1.4716 -1.1586  2.0374
21311SOL    HW264112   0.427   6.410   1.322 -1.4910 -0.2186 -0.1342
21312SOL     OW64113   0.945   5.483   2.484 -0.0274 -0.0542 -0.2497
21312SOL    HW164114   1.027   5.511   2.533 -1.1258  1.1375  1.0310
21312SOL    HW264115   0.869   5.543   2.511 -1.0309 -0.3163 -2.3276
21313SOL     OW64116   3.812   3.828   7.096  0.0987 -0.0765  0.2819
21313SOL    HW164117   3.765   3.911   7.067  0.2948 -0.1972 -0.3891
21313SOL    HW264118   3.746   3.762   7.130 -0.3939 -0.7828 -1.9369
21314SOL     OW64119   2.046   3.879   1.766  0.3001 -0.0886  0.0721
21314SOL    HW164120   2.010   3.896   1.858  0.1904 -2.7205  0.5816
21314SOL    HW264121   2.146   3.891   1.766  0.4118 -0.9585  0.7804
21315SOL     OW64122   7.551   6.510   3.866  0.3555  0.3890  0.6573
21315SOL    HW164123   7.494   6.486   3.787  0.5313  0.4777  0.5037
21315SOL    HW264124   7.647   6.499   3.843  0.3910 -2.2486  1.6990
21316SOL     OW64125   5.385   0.742   7.557  0.3258 -0.1260  0.1633
21316SOL    HW164126   5.449   0.817   7.570 -0.3556  0.3457  0.8497
21316SOL    HW264127   5.377   0.689   7.641 -1.0168  0.4920  0.4531
21317SOL     OW64128   6.952   7.698   7.884 -0.3720  0.0511 -0.5769
21317SOL    HW164129   6.977   7.612   7.929 -1.0955 -1.3849 -2.7642
21317SOL    HW264130   6.858   7.694   7.852  0.0753  0.9991 -2.1465
21318SOL     OW64131   7.786   6.423   4.470 -0.0077  0.1084 -0.1912
21318SOL    HW164132   7.871   6.379   4.500  0.4948  1.8125  1.0070
21318SOL    HW264133   7.716   6.353   4.458  1.4300 -1.2954 -0.8461
21319SOL     OW64134   8.559   3.848   0.376  0.4040  0.0635  0.2269
21319SOL    HW164135   8.651   3.820   0.405  1.0192  0.0018 -1.6735
21319SOL    HW264136   8.545   3.823   0.280 -1.1860  1.1068  0.1530
21320SOL     OW64137   3.731   1.351   6.772  0.1384  0.1572 -0.2540
21320SOL    HW164138   3.764   1.390   6.687  0.1037  1.7895  0.4457
21320SOL    HW264139   3.774   1.262   6.787  3.1111  1.5226 -0.1161
21321SOL     OW64140   2.427   0.563   8.311  0.0917  0.1508  0.4439
21321SOL    HW164141   2.401   0.609   8.226 -1.4218 -0.5209  0.5254
21321SOL    HW264142   2.509   0.508   8.294 -0.5727 -0.5067 -0.7624
21322SOL     OW64143   7.450   3.299   5.306 -0.3594 -0.0788  0.4482
21322SOL    HW164144   7.525   3.358   5.276  0.1537 -0.8904  0.1012
21322SOL    HW264145   7.449   3.295   5.406 -1.7670  2.2418  0.5924
21323SOL     OW64146   0.719   3.739   6.211 -0.1974  0.4246 -0.6835
21323SOL    HW164147   0.795   3.797   6.241 -0.2690  0.4022 -0.4573
21323SOL    HW264148   0.734   3.712   6.115 -0.1950  0.8586 -0.8068
21324SOL     OW64149   5.899   0.197   4.185  0.3453 -0.2732 -0.6515
21324SOL    HW164150   5.806   0.161   4.177  0.4600 -0.4077 -1.4513
21324SOL    HW264151   5.965   0.124   4.167  0.6008 -0.0715 -0.5418
21325SOL     OW64152   1.044   5.492   7.375  0.1160  0.1144  0.2556
21325SOL    HW164153   1.015   5.506   7.470 -1.9114 -2.6241  0.1270
21325SOL    HW264154   0.968   5.512   7.313  0.5155 -0.8655 -0.5797
21326SOL     OW64155   5.383   8.797   8.343  0.7375  0.2676  0.1117
21326SOL    HW164156   5.441   8.736   8.289 -0.1653 -0.7297  0.2301
21326SOL    HW264157   5.321   8.847   8.282 -0.9270 -1.5420  0.2103
21327SOL     OW64158   0.283   8.145   6.273  0.1890  0.1853 -0.1825
21327SOL    HW164159   0.273   8.172   6.368  0.8428 -1.2213  0.3128
21327SOL    HW264160   0.371   8.100   6.259 -0.5030 -0.9691 -1.0959
21328SOL     OW64161   4.898   2.529   0.110 -0.7569 -0.1645  0.3148
21328SOL    HW164162   4.916   2.551   0.014 -1.6055 -0.8167 -0.0115
21328SOL    HW264163   4.861   2.436   0.116  1.7355 -1.1503  1.5367
21329SOL     OW64164   7.208   6.767   0.246 -0.1348  0.2165 -0.1988
21329SOL    HW164165   7.247   6.849   0.204 -1.5039  0.8467 -0.2808
21329SOL    HW264166   7.187   6.700   0.174 -1.5521  0.9011 -0.4561
21330SOL     OW64167   5.516   0.933   0.613 -0.3713  0.1130 -0.2621
21330SOL    HW164168   5.544   0.974   0.525 -0.7339 -1.0821 -0.9497
21330SOL    HW264169   5.417   0.926   0.616 -0.2764 -1.8969 -0.7275
21331SOL     OW64170   4.061   2.785   5.094 -0.1300 -0.3692 -0.4883
21331SOL    HW164171   4.158   2.760   5.096 -0.0666 -0.4707 -2.6358
21331SOL    HW264172   4.027   2.794   5.188  2.3886  1.4719  0.3585
21332SOL     OW64173   4.952   6.689   1.621 -0.4561 -0.6684  0.2436
21332SOL    HW164174   4.927   6.617   1.685  0.4282  0.9643  2.6038
21332SOL    HW264175   4.870   6.727   1.579 -1.1710 -1.2212  1.1050
21333SOL     OW64176   0.291   5.528   2.721  0.4280  0.7837  0.3643
21333SOL    HW164177   0.307   5.451   2.659  1.4778  1.3909 -0.1367
21333SOL    HW264178   0.317   5.502   2.814  1.8560  0.8694  0.0152
21334SOL     OW64179   0.581   3.765   7.684 -0.0288 -0.1265 -0.1147
21334SOL    HW164180   0.493   3.751   7.640 -0.1299 -1.0713  0.3510
21334SOL    HW264181   0.568   3.813   7.771 -0.2103 -1.0154  0.3710
21335SOL     OW64182   5.272   0.620   3.566 -0.3277  0.1047 -0.1457
21335SOL    HW164183   5.288   0.522   3.551  1.7955  0.6686 -2.2182
21335SOL    HW264184   5.300   0.645   3.658 -1.2508 -1.2829  0.5420
21336SOL     OW64185   1.437   7.637   6.877 -0.2973 -0.3398  0.3235
21336SOL    HW164186   1.384   7.717   6.848  1.1769  0.4784 -0.2368
21336SOL    HW264187   1.513   7.667   6.935 -0.5723 -1.5107  1.3275
21337SOL     OW64188   0.846   4.389   5.184  0.2327  0.0181  0.1965
21337SOL    HW164189   0.870   4.305   5.136  0.4168  1.2383 -1.9413
21337SOL    HW264190   0.747   4.394   5.198  0.2027 -0.4437  0.1448
21338SOL     OW64191   4.549   0.378   2.183 -1.1119 -0.2993 -0.1990
21338SOL    HW164192   4.456   0.397   2.151 -0.8043  1.1349 -0.3231
21338SOL    HW264193   4.580   0.453   2.241 -0.2660 -1.0787  0.3750
21339SOL     OW64194   5.304   5.433   3.696 -0.0408  0.5347 -0.5659
21339SOL    HW164195   5.331   5.514   3.644 -0.6575 -0.6798 -2.9491
21339SOL    HW264196   5.214   5.447   3.736  0.0894  1.2148 -0.5082
21340SOL     OW64197   3.502   1.109   6.730  0.4294  0.6655  0.3868
21340SOL    HW164198   3.513   1.208   6.722 -1.0847  1.3148  4.3708
21340SOL    HW264199   3.421   1.080   6.678  0.0941  1.7379  0.3001
21341SOL     OW64200   8.298   2.785   4.682 -0.3431  0.4307  0.5557
21341SOL    HW164201   8.306   2.871   4.733  1.7009  0.1247  0.8223
21341SOL    HW264202   8.267   2.713   4.745  2.0811  0.0756  1.4411
21342SOL     OW64203   1.254   0.688   7.798 -0.0797  0.0787  0.0764
21342SOL    HW164204   1.313   0.608   7.812 -1.0520 -0.6988 -0.1520
21342SOL    HW264205   1.310   0.771   7.802  1.0756 -0.6392 -0.4135
21343SOL     OW64206   2.003   6.117   2.546 -0.0844  0.1733  0.0906
21343SOL    HW164207   1.979   6.103   2.642  0.0585  2.6465  0.5523
21343SOL    HW264208   2.102   6.109   2.536 -0.0453  0.3946  0.2704
21344SOL     OW64209   0.354   6.321   6.663 -0.1376 -0.4864  0.3757
21344SOL    HW164210   0.427   6.353   6.602 -0.4623 -0.0365  0.2181
21344SOL    HW264211   0.389   6.315   6.756  0.1682 -0.4942  0.2621
21345SOL     OW64212   7.418   3.792   6.634 -0.4213  0.2357 -0.2140
21345SOL    HW164213   7.348   3.748   6.578 -0.7283  0.6013 -0.1201
21345SOL    HW264214   7.448   3.877   6.590  1.7073 -1.0895 -1.4851
21346SOL     OW64215   3.893   3.857   4.063  0.7356 -0.0161  0.0535
21346SOL    HW164216   3.846   3.817   3.984 -0.1674  1.8980 -0.4591
21346SOL    HW264217   3.988   3.876   4.039  0.5183  0.3659 -0.5354
21347SOL     OW64218   8.183   5.166   7.530  0.5628  0.0097  0.2753
21347SOL    HW164219   8.140   5.160   7.619  0.8817  0.4691  0.4657
21347SOL    HW264220   8.259   5.232   7.534  0.8762 -0.3111 -0.2090
21348SOL     OW64221   1.559   2.974   1.143  0.3135 -0.1827 -0.7828
21348SOL    HW164222   1.559   2.956   1.044  3.7022 -0.8642 -0.7933
21348SOL    HW264223   1.506   2.903   1.189  1.4961 -1.9009 -1.9271
21349SOL     OW64224   5.370   8.090   4.584 -0.4688 -0.1663 -0.2463
21349SOL    HW164225   5.422   8.007   4.564 -0.4578 -0.0757 -0.6006
21349SOL    HW264226   5.308   8.109   4.508  0.4810  0.8896 -0.7971
21350SOL     OW64227   5.633   7.057   6.654  0.5430 -0.5421 -0.6573
21350SOL    HW164228   5.640   6.957   6.657  1.5638 -0.4877 -0.9744
21350SOL    HW264229   5.708   7.095   6.598 -0.7947  0.3034 -1.9533
21351SOL     OW64230   7.437   4.202   5.209  0.1662  0.0683  0.2454
21351SOL    HW164231   7.431   4.238   5.115  1.7967  1.7064  0.7094
21351SOL    HW264232   7.491   4.118   5.208 -1.4998 -1.0632 -0.5015
21352SOL     OW64233   2.316   6.369   1.051  0.2103 -0.1721  0.1689
21352SOL    HW164234   2.235   6.322   1.014  0.6253 -0.6855 -0.1138
21352SOL    HW264235   2.379   6.300   1.088 -0.2200  0.3250  1.9186
21353SOL     OW64236   7.797   7.648   2.357  0.1953 -0.1732 -0.2601
21353SOL    HW164237   7.855   7.615   2.283  0.6064 -0.0693  0.0072
21353SOL    HW264238   7.798   7.582   2.432 -0.2284 -0.2839 -0.3494
21354SOL     OW64239   1.623   4.049   0.919  0.5186  0.0940  0.0641
21354SOL    HW164240   1.668   4.137   0.904  0.1907  0.5334  1.4398
21354SOL    HW264241   1.543   4.042   0.860  0.0866  1.1010  0.4924
21355SOL     OW64242   2.476   1.744   8.770  0.2288  0.3932 -0.3333
21355SOL    HW164243   2.386   1.701   8.758 -0.3206  0.6519  2.2727
21355SOL    HW264244   2.517   1.711   8.855  0.7609  3.3136  0.6392
21356SOL     OW64245   7.953   1.298   3.937 -0.3010  0.1785  0.1368
21356SOL    HW164246   7.889   1.364   3.896 -3.2127 -3.6811 -2.2381
21356SOL    HW264247   8.040   1.302   3.888 -0.0550  2.7295  0.6496
21357SOL     OW64248   4.421   5.467   1.399  0.2289 -0.1158 -0.0472
21357SOL    HW164249   4.372   5.518   1.328 -1.4163  0.8220  1.6815
21357SOL    HW264250   4.519   5.468   1.379 -0.1733  0.1768 -2.2406
21358SOL     OW64251   2.435   5.325   6.898 -0.0067  0.4092 -0.4160
21358SOL    HW164252   2.452   5.286   6.989 -0.3967  0.2214 -0.4184
21358SOL    HW264253   2.380   5.408   6.908 -1.0744 -0.2689 -0.5526
21359SOL     OW64254   3.469   3.714   8.635  0.3670 -0.2952  0.2182
21359SOL    HW164255   3.511   3.728   8.545  0.9276 -1.8734  0.2040
21359SOL    HW264256   3.416   3.629   8.634  1.3056 -0.9303  1.7070
21360SOL     OW64257   0.124   4.300   1.421  0.2027 -0.4209  0.4687
21360SOL    HW164258   0.201   4.309   1.358  0.2143 -0.8562  0.4197
21360SOL    HW264259   0.061   4.230   1.387 -0.2742  0.0141  0.4481
21361SOL     OW64260   3.299   1.708   6.313  0.0479  0.0416 -0.4253
21361SOL    HW164261   3.343   1.687   6.400 -0.2727  0.2739 -0.2024
21361SOL    HW264262   3.246   1.629   6.282 -1.4064  0.5771  0.5628
21362SOL     OW64263   6.308   5.382   3.214  0.4243 -0.1740  0.2446
21362SOL    HW164264   6.262   5.436   3.284  0.6406  0.8871 -0.3991
21362SOL    HW264265   6.377   5.324   3.256 -0.4727 -0.6767  1.0591
21363SOL     OW64266   1.090   5.093   6.388  0.0970 -0.1552 -0.0978
21363SOL    HW164267   1.082   5.068   6.485 -1.4227 -0.2542 -0.2372
21363SOL    HW264268   1.117   5.189   6.381  2.2060 -0.6524  0.4108
21364SOL     OW64269   7.690   3.725   8.823  0.6162  0.0049  0.4328
21364SOL    HW164270   7.669   3.723   8.920  0.0478 -3.4076  0.3793
21364SOL    HW264271   7.765   3.790   8.806  0.6209  0.8108  3.0695
21365SOL     OW64272   1.195   1.630   6.068  0.6901 -0.0040  0.1669
21365SOL    HW164273   1.225   1.536   6.051 -1.2684 -0.4249 -1.3483
21365SOL    HW264274   1.108   1.646   6.021 -0.3724  1.7710  2.5593
21366SOL     OW64275   6.033   2.481   2.623 -0.6196  0.0070 -0.0893
21366SOL    HW164276   6.073   2.484   2.531 -2.9850 -0.6488 -1.1984
21366SOL    HW264277   5.986   2.394   2.637 -1.8614  0.8239  1.0419
21367SOL     OW64278   4.738   8.627   7.195 -0.1840  0.2299 -0.0827
21367SOL    HW164279   4.816   8.608   7.135 -0.7704  0.9278 -1.0847
21367SOL    HW264280   4.676   8.548   7.194  0.3944 -0.2476  0.5635
21368SOL     OW64281   7.868   3.858   2.857  0.4726 -0.0362  0.6460
21368SOL    HW164282   7.954   3.815   2.885  0.4713  1.1710  2.6834
21368SOL    HW264283   7.825   3.901   2.936 -1.5211  0.2671 -0.5448
21369SOL     OW64284   2.440   0.197   0.776  0.3816  0.0363  0.4082
21369SOL    HW164285   2.389   0.283   0.783  1.9377  1.0868 -0.5235
21369SOL    HW264286   2.392   0.136   0.713 -1.5032 -0.4170  2.1526
21370SOL     OW64287   5.914   3.291   8.262 -0.3742  0.2307  0.1913
21370SOL    HW164288   5.982   3.362   8.243  0.8044 -0.3897  1.8494
21370SOL    HW264289   5.826   3.319   8.224  0.7448  1.0811 -1.9965
21371SOL     OW64290   1.576   2.921   0.886  0.3024  0.4765  0.0695
21371SOL    HW164291   1.669   2.886   0.878 -0.1838 -0.4493 -2.1162
21371SOL    HW264292   1.512   2.855   0.847 -1.2497  1.2778  1.1528
21372SOL     OW64293   6.003   0.987   6.018  0.4924 -0.4722  0.1838
21372SOL    HW164294   6.089   0.976   6.068  0.9274 -0.8937 -0.6258
21372SOL    HW264295   6.012   1.060   5.951  0.7434 -1.4864 -0.9358
21373SOL     OW64296   0.890   3.243   7.577  0.3938 -0.0168 -0.0961
21373SOL    HW164297   0.906   3.342   7.573 -1.2224  0.3317  0.9611
21373SOL    HW264298   0.792   3.226   7.588  0.6911 -1.7348  0.1123
21374SOL     OW64299   5.100   8.140   2.493 -0.3852  0.7809 -0.1290
21374SOL    HW164300   5.013   8.157   2.447 -0.5930  0.9513  0.3170
21374SOL    HW264301   5.089   8.068   2.562  1.0058 -3.1324 -3.5660
21375SOL     OW64302   6.538   6.655   3.599  0.2476  0.4342  0.2149
21375SOL    HW164303   6.468   6.705   3.548 -1.3955 -3.4140 -1.6985
21375SOL    HW264304   6.503   6.628   3.689 -0.2649 -0.3250 -0.2039
21376SOL     OW64305   5.957   0.194   3.784  0.1779 -0.3298  0.2665
21376SOL    HW164306   5.928   0.266   3.722  1.1548  1.3424  1.6478
21376SOL    HW264307   6.036   0.147   3.747  1.1092  1.0397  0.4637
21377SOL     OW64308   0.527   4.206   1.812 -0.5596  0.0944 -0.4039
21377SOL    HW164309   0.431   4.211   1.840 -0.3410  2.7665  0.1030
21377SOL    HW264310   0.585   4.225   1.891  0.2798  1.1032 -1.2391
21378SOL     OW64311   7.798   4.608   5.263 -0.3085 -0.2618  0.0626
21378SOL    HW164312   7.749   4.533   5.219  0.6200 -0.1210 -1.2750
21378SOL    HW264313   7.801   4.593   5.362  0.8909 -2.6100 -0.2638
21379SOL     OW64314   3.068   7.103   7.215 -0.7024 -0.0047  0.2383
21379SOL    HW164315   3.038   7.083   7.308 -1.4396  1.4199  0.3456
21379SOL    HW264316   3.045   7.198   7.193 -0.5525 -0.3215 -1.4043
21380SOL     OW64317   5.339   1.150   0.902  0.0969 -0.3354  0.0540
21380SOL    HW164318   5.327   1.056   0.935 -0.2272 -0.2318  0.2323
21380SOL    HW264319   5.263   1.174   0.842  0.6913 -0.5289 -0.8013
21381SOL     OW64320   6.161   4.170   1.906 -0.6702 -0.2066  0.0816
21381SOL    HW164321   6.072   4.194   1.867 -1.5351  0.1492  2.1318
21381SOL    HW264322   6.217   4.252   1.915 -0.5281 -0.2670 -0.2055
21382SOL     OW64323   6.521   5.990   1.381  0.0385 -0.1398  0.0114
21382SOL    HW164324   6.448   5.931   1.416 -3.0926  1.9304 -2.4115
21382SOL    HW264325   6.504   6.084   1.410  2.3689  0.3016  0.1407
21383SOL     OW64326   1.749   3.634   3.979 -0.1990  0.7904 -0.3124
21383SOL    HW164327   1.845   3.611   3.995 -0.1508  1.1884 -0.0090
21383SOL    HW264328   1.717   3.693   4.053 -1.0090 -0.3020  0.2289
21384SOL     OW64329   3.720   6.770   8.615  0.2650  0.1907 -0.5467
21384SOL    HW164330   3.680   6.858   8.639  0.1572 -0.1101  0.3918
21384SOL    HW264331   3.816   6.783   8.588  0.5033  0.4981  0.4081
21385SOL     OW64332   2.878   7.982   6.851 -0.4509  0.6850 -0.1764
21385SOL    HW164333   2.889   7.910   6.782  1.7481  0.0544  0.7522
21385SOL    HW264334   2.906   7.948   6.940 -0.5243  2.3393  0.5198
21386SOL     OW64335   1.938   7.394   6.792 -0.4520  0.1934  0.1998
21386SOL    HW164336   1.991   7.479   6.782  1.1490 -0.6871  0.8541
21386SOL    HW264337   1.897   7.391   6.883 -1.9600  1.0186 -0.4132
21387SOL     OW64338   5.341   4.319   2.691  0.3010 -0.4331  0.3265
21387SOL    HW164339   5.274   4.293   2.621 -0.0814  0.3457  0.3928
21387SOL    HW264340   5.299   4.316   2.781 -0.3266  2.0680  0.2068
21388SOL     OW64341   2.181   5.751   4.772 -0.5009  0.2609  0.0376
21388SOL    HW164342   2.107   5.685   4.758 -1.8794  1.8621 -0.5601
21388SOL    HW264343   2.180   5.819   4.699  0.9716  0.8849  0.5532
21389SOL     OW64344   4.427   1.465   3.711 -0.1612  0.1550  0.4585
21389SOL    HW164345   4.444   1.523   3.791 -0.6194  1.6393 -0.4819
21389SOL    HW264346   4.481   1.381   3.719  1.4406  1.2068  1.3218
21390SOL     OW64347   3.968   5.986   8.512  0.1657  0.8308  0.2146
21390SOL    HW164348   4.065   5.992   8.491  0.0328 -0.7076 -1.0360
21390SOL    HW264349   3.932   6.078   8.531  1.4530  1.6742 -1.1840
21391SOL     OW64350   1.010   0.477   5.647 -0.2032  0.5259  0.0466
21391SOL    HW164351   0.965   0.387   5.653  1.6812 -0.6625 -2.1458
21391SOL    HW264352   1.086   0.472   5.583  1.3317  3.1892  1.4770
21392SOL     OW64353   8.332   6.003   7.061  0.0879  0.1887 -0.0546
21392SOL    HW164354   8.426   6.035   7.046  1.2482 -1.9297  2.0606
21392SOL    HW264355   8.298   5.960   6.977  2.1721 -1.6782 -0.0294
21393SOL     OW64356   5.799   8.507   3.136 -0.4090  0.2764  0.1307
21393SOL    HW164357   5.702   8.530   3.122 -0.5349 -0.6740 -0.6700
21393SOL    HW264358   5.848   8.589   3.165 -1.2284  1.0775 -0.6463
21394SOL     OW64359   0.492   4.074   6.787 -0.2873  0.1357  0.6385
21394SOL    HW164360   0.514   4.172   6.785 -2.6229  0.7034 -0.5722
21394SOL    HW264361   0.422   4.057   6.856 -1.0730 -0.3944 -0.2756
21395SOL     OW64362   2.527   0.012   8.727  0.7191  0.5066  0.2638
21395SOL    HW164363   2.519   0.109   8.707  0.1534  0.3552 -0.2606
21395SOL    HW264364   2.440  -0.022   8.763 -0.5059 -0.6890 -3.4403
21396SOL     OW64365   6.033   7.133   0.948 -0.5256 -0.3617 -0.4107
21396SOL    HW164366   6.072   7.203   0.889 -0.4605  0.0312  0.0950
21396SOL    HW264367   5.973   7.175   1.016  1.6863 -0.4282  1.7117
21397SOL     OW64368   6.079   0.308   2.813  0.7783  0.0015 -0.2002
21397SOL    HW164369   6.138   0.381   2.779  2.0978 -0.4002  1.1188
21397SOL    HW264370   6.121   0.219   2.795 -0.0984 -0.3696 -0.4751
21398SOL     OW64371   5.154   0.596   5.433  0.0021 -0.0728 -0.1720
21398SOL    HW164372   5.135   0.684   5.476  0.2205 -0.2079  0.2000
21398SOL    HW264373   5.207   0.611   5.349 -1.1862  0.2552 -0.8831
21399SOL     OW64374   4.715   3.369   1.421  0.2929 -0.1085 -0.2436
21399SOL    HW164375   4.691   3.356   1.517  0.3430 -0.1462 -0.2362
21399SOL    HW264376   4.637   3.344   1.364  0.6156 -1.1270 -0.2645
21400SOL     OW64377   4.303   6.505   1.098  0.0580 -0.2254  0.2343
21400SOL    HW164378   4.236   6.482   1.028 -1.4494 -1.2059  1.8997
21400SOL    HW264379   4.324   6.423   1.152  0.4059  0.6943  1.5463
21401SOL     OW64380   2.790   0.065   8.431  0.4127 -0.4591  0.6854
21401SOL    HW164381   2.768   0.050   8.528 -0.6199 -0.9633  0.3839
21401SOL    HW264382   2.829   0.156   8.420  1.1200 -0.6284  1.6661
21402SOL     OW64383   8.491   3.820   3.048  0.0290  0.6397  0.2949
21402SOL    HW164384   8.391   3.820   3.053  0.0184  0.9782  0.1116
21402SOL    HW264385   8.530   3.803   3.138 -0.1886  1.1658  0.4885
21403SOL     OW64386   7.124   4.752   3.752  0.4004  0.5700 -0.0201
21403SOL    HW164387   7.039   4.701   3.740  0.4816  0.3757  0.2182
21403SOL    HW264388   7.184   4.737   3.673 -0.4813  2.0871 -1.0336
21404SOL     OW64389   1.316   3.673   5.586  0.9069 -0.5472 -0.0051
21404SOL    HW164390   1.356   3.758   5.553  2.0064 -1.1023 -0.1564
21404SOL    HW264391   1.384   3.623   5.640  0.2758 -1.3271  0.0900
21405SOL     OW64392   8.110   2.868   0.922 -0.0297 -0.0279 -0.3254
21405SOL    HW164393   8.013   2.844   0.917 -0.2158  0.6726 -0.2967
21405SOL    HW264394   8.151   2.857   0.831  0.1850 -1.5532 -0.0683
21406SOL     OW64395   4.088   8.038   1.311 -0.2399 -0.0067 -0.0596
21406SOL    HW164396   4.138   8.074   1.233  0.4053  0.6653  0.6518
21406SOL    HW264397   4.039   8.111   1.357  0.6242 -0.0995  1.0617
21407SOL     OW64398   5.533   1.761   8.030  0.3363  0.1820 -0.4357
21407SOL    HW164399   5.616   1.800   8.071 -0.2606 -0.6640  1.7059
21407SOL    HW264400   5.558   1.692   7.963  1.4357 -1.5713  1.6705
21408SOL     OW64401   0.562   2.974   5.259  0.0491 -0.1202 -0.5141
21408SOL    HW164402   0.542   2.905   5.328  1.2676 -0.2332 -0.2531
21408SOL    HW264403   0.491   2.973   5.189 -1.7721  0.6745  1.2360
21409SOL     OW64404   5.294   3.109   2.660  0.1003 -0.0977 -0.6912
21409SOL    HW164405   5.294   3.010   2.642  0.0379  0.0410 -1.4565
21409SOL    HW264406   5.307   3.159   2.575 -1.2541  0.5923 -0.5267
21410SOL     OW64407   8.473   7.715   5.019 -0.0148  0.2012  0.2979
21410SOL    HW164408   8.408   7.676   5.084  2.6558 -2.3203  1.7082
21410SOL    HW264409   8.525   7.788   5.063  0.3664 -0.0841  0.3312
21411SOL     OW64410   8.068   4.696   6.221  0.4016  0.3470 -0.2358
21411SOL    HW164411   7.999   4.644   6.171 -1.2959 -0.0390  2.3631
21411SOL    HW264412   8.033   4.788   6.242 -0.5912 -0.6941  3.3815
21412SOL     OW64413   1.491   3.813   3.767  0.4951 -0.2269  0.2464
21412SOL    HW164414   1.583   3.810   3.727  0.6478 -0.1180  0.5840
21412SOL    HW264415   1.427   3.853   3.702  1.0987  1.7311  0.8006
21413SOL     OW64416   0.375   6.161   0.354  0.0013 -0.6157  0.0638
21413SOL    HW164417   0.457   6.216   0.340 -0.2213 -0.4611 -0.6707
21413SOL    HW264418   0.326   6.193   0.435 -0.0363  0.1613 -0.2628
21414SOL     OW64419   5.365   5.206   4.198 -0.4353 -0.4528  0.3489
21414SOL    HW164420   5.366   5.252   4.109  0.9037 -0.9219  0.1015
21414SOL    HW264421   5.436   5.137   4.200 -1.4576 -1.5199  1.2502
21415SOL     OW64422   2.046   4.557   1.230  0.2753 -0.8919 -0.5638
21415SOL    HW164423   1.975   4.486   1.231  0.5343 -1.2028  1.5584
21415SOL    HW264424   2.086   4.563   1.139 -0.3387 -2.9137 -1.0261
21416SOL     OW64425   3.813   5.428   6.872  0.1993 -0.1851  0.2880
21416SOL    HW164426   3.888   5.381   6.825 -1.1108 -0.6644 -1.4042
21416SOL    HW264427   3.847   5.515   6.908  1.8885 -1.0001  0.7900
21417SOL     OW64428   3.564   3.983   0.136  0.0249 -0.0864  0.2347
21417SOL    HW164429   3.589   3.936   0.051  1.2970 -1.1576  1.1739
21417SOL    HW264430   3.496   3.930   0.186  0.4610 -0.2648  0.6466
21418SOL     OW64431   2.656   6.976   8.506  0.0327  0.2582  0.2090
21418SOL    HW164432   2.724   7.049   8.515  1.1421 -0.5327 -1.2504
21418SOL    HW264433   2.658   6.939   8.413 -1.4323 -0.7475  0.5320
21419SOL     OW64434   4.764   6.260   4.573  0.2854  0.0935  0.9351
21419SOL    HW164435   4.787   6.185   4.636  2.1403 -1.6572 -1.6029
21419SOL    HW264436   4.849   6.302   4.540 -0.6475  1.1174 -0.2385
21420SOL     OW64437   6.977   7.029   4.527  0.3033  0.4081  0.6291
21420SOL    HW164438   7.024   6.956   4.478 -0.9540  0.1733 -0.2565
21420SOL    HW264439   6.940   6.993   4.613 -0.9592 -0.2277 -0.1467
21421SOL     OW64440   8.156   4.904   3.662 -0.1804  0.6370 -0.3774
21421SOL    HW164441   8.101   4.942   3.737 -1.3605 -0.8839 -0.4251
21421SOL    HW264442   8.228   4.847   3.700 -0.0449  0.8146 -0.3687
21422SOL     OW64443   1.876   8.132   2.965 -0.1211  0.2525 -0.0474
21422SOL    HW164444   1.920   8.132   2.875 -0.5959 -0.0428 -0.2836
21422SOL    HW264445   1.778   8.114   2.954 -0.3086  0.9299  0.4690
21423SOL     OW64446   2.830   2.620   3.494  0.3789 -0.1531 -0.2828
21423SOL    HW164447   2.834   2.610   3.593 -1.4801 -0.9066 -0.2459
21423SOL    HW264448   2.804   2.533   3.452  1.6118  0.0254 -1.4945
21424SOL     OW64449   0.266   5.132   5.133  0.7172  0.1293  0.2233
21424SOL    HW164450   0.341   5.124   5.198  1.2484  0.3711 -0.3522
21424SOL    HW264451   0.199   5.198   5.168  0.0589 -1.0887  1.3903
21425SOL     OW64452   7.404   5.160   1.914 -0.1976  0.3053  0.0349
21425SOL    HW164453   7.430   5.230   1.980 -1.6260  0.5574  0.3722
21425SOL    HW264454   7.479   5.095   1.902  1.9846  2.9481 -1.7839
21426SOL     OW64455   2.428   2.699   7.610 -0.0433  0.0441 -0.0439
21426SOL    HW164456   2.378   2.783   7.632 -1.0099 -0.4430 -0.2902
21426SOL    HW264457   2.497   2.718   7.540 -1.2619  0.3611 -1.2098
21427SOL     OW64458   6.023   2.476   7.985  0.0949  0.5862 -0.7297
21427SOL    HW164459   5.962   2.453   7.909  0.5218 -0.0702 -0.8893
21427SOL    HW264460   5.981   2.547   8.042 -0.5539  0.5567 -1.1595
21428SOL     OW64461   3.120   4.884   1.021 -0.3129  0.2743  0.0105
21428SOL    HW164462   3.219   4.884   1.036 -0.5203  1.7492  1.6659
21428SOL    HW264463   3.101   4.890   0.923  1.2518  0.6176 -0.2954
21429SOL     OW64464   0.031   5.569   0.101  0.1243  0.2171  0.5589
21429SOL    HW164465   0.042   5.624   0.018  1.8864  0.2932  0.8087
21429SOL    HW264466  -0.029   5.617   0.165 -1.8243 -0.1543 -0.9054
21430SOL     OW64467   2.644   7.205   0.181 -0.1595  0.6751  0.1818
21430SOL    HW164468   2.672   7.144   0.107 -2.7094  0.9480 -1.1208
21430SOL    HW264469   2.718   7.211   0.248  1.9687 -0.2175 -1.8968
21431SOL     OW64470   0.497   5.581   1.688 -0.1035  0.3802 -0.1111
21431SOL    HW164471   0.531   5.544   1.601  0.2511 -0.2093  0.2760
21431SOL    HW264472   0.403   5.553   1.702 -0.1866  0.5412 -0.3420
21432SOL     OW64473   6.549   0.788   2.033 -0.1528 -0.0334  0.0632
21432SOL    HW164474   6.453   0.811   2.043 -0.7671 -1.2079 -2.3671
21432SOL    HW264475   6.577   0.801   1.938  1.8429 -0.6339  0.5072
21433SOL     OW64476   1.882   2.422   6.715 -0.1468 -0.0759 -0.0819
21433SOL    HW164477   1.971   2.396   6.677  0.3320 -0.1440  1.0449
21433SOL    HW264478   1.894   2.451   6.810 -1.5340 -1.4986  0.5761
21434SOL     OW64479   8.000   6.888   1.492 -0.0196  0.1876 -0.2404
21434SOL    HW164480   7.979   6.790   1.486  1.5591 -0.0982 -3.3675
21434SOL    HW264481   7.916   6.939   1.508 -1.3820 -1.5365 -1.4743
21435SOL     OW64482   8.588   2.474   0.884  0.2504 -0.6158 -0.1613
21435SOL    HW164483   8.531   2.398   0.855  1.4747 -1.3385 -0.7524
21435SOL    HW264484   8.675   2.472   0.834  0.7333  0.5539  0.5765
21436SOL     OW64485   5.111   8.035   7.510  0.8243 -0.3330 -0.4161
21436SOL    HW164486   5.068   7.966   7.568 -0.6729  0.0996 -0.9427
21436SOL    HW264487   5.099   8.010   7.414 -0.6289  1.0745 -0.6643
21437SOL     OW64488   8.018   2.325   4.424  0.2410 -0.4736  0.0069
21437SOL    HW164489   8.041   2.392   4.495 -0.5544 -0.4899  0.2826
21437SOL    HW264490   7.929   2.346   4.385 -0.0959 -1.4701  0.2098
21438SOL     OW64491   6.256   1.973   0.441  0.2483  1.1091  0.0595
21438SOL    HW164492   6.345   1.928   0.454  0.7646  2.1964  0.3543
21438SOL    HW264493   6.264   2.070   0.460 -1.2292  1.0732  1.0322
21439SOL     OW64494   1.451   0.026   6.972  0.2566 -0.6233  0.0583
21439SOL    HW164495   1.433  -0.033   6.893 -0.8834 -1.3448  0.8340
21439SOL    HW264496   1.421  -0.019   7.055  0.0091  0.7626  0.7570
21440SOL     OW64497   8.100   6.433   4.175 -0.0363 -0.0417  0.1359
21440SOL    HW164498   8.101   6.530   4.149 -0.5480  0.9703  3.4097
21440SOL    HW264499   8.008   6.396   4.162  0.4156 -0.4912 -2.1771
21441SOL     OW64500   4.634   6.478   0.904 -0.5211 -0.1711 -0.3494
21441SOL    HW164501   4.568   6.413   0.867 -1.2741 -0.5520  1.5597
21441SOL    HW264502   4.724   6.463   0.861 -1.0140 -1.5040 -0.9575
21442SOL     OW64503   2.961   1.570   1.419  0.4085  0.4261  0.8339
21442SOL    HW164504   3.059   1.552   1.428  0.9979  2.6414 -0.2461
21442SOL    HW264505   2.944   1.618   1.333 -1.4153  1.4785  1.7099
21443SOL     OW64506   5.093   2.823   4.144  0.0663 -0.5771  0.7483
21443SOL    HW164507   5.073   2.725   4.145 -1.2097 -0.3258  1.3210
21443SOL    HW264508   5.052   2.866   4.224 -0.6101  0.6581 -0.2237
21444SOL     OW64509   7.600   8.039   4.919  0.1284 -0.0873 -0.0789
21444SOL    HW164510   7.649   8.094   4.986  0.6786 -1.1746  0.4341
21444SOL    HW264511   7.547   8.099   4.859  1.6037  1.0674 -0.2671
21445SOL     OW64512   8.522   2.853   2.590  0.6837  0.3728 -0.0563
21445SOL    HW164513   8.600   2.872   2.650  0.9552 -0.5193 -0.1100
21445SOL    HW264514   8.450   2.809   2.642  0.5759  0.3740 -0.2017
21446SOL     OW64515   7.816   5.868   0.036 -0.6604  0.2530 -0.0829
21446SOL    HW164516   7.914   5.879   0.017 -0.0510 -0.4088  2.3950
21446SOL    HW264517   7.779   5.955   0.069 -0.5241  0.0874  0.5110
21447SOL     OW64518   6.954   5.522   8.531  0.0688 -0.2332  0.3467
21447SOL    HW164519   6.861   5.492   8.510  0.2569 -0.9321  0.4884
21447SOL    HW264520   7.001   5.450   8.582  1.8339 -1.4140 -2.6962
21448SOL     OW64521   0.187   4.662   7.026  0.2720 -0.5904 -0.2276
21448SOL    HW164522   0.237   4.637   7.109 -1.4585 -2.7859  0.2316
21448SOL    HW264523   0.091   4.676   7.048 -0.2409 -1.3390 -1.8850
21449SOL     OW64524   0.205   7.626   1.333  0.5052  0.1683  0.6897
21449SOL    HW164525   0.171   7.544   1.379 -0.0598  0.3499  0.6094
21449SOL    HW264526   0.293   7.652   1.372  1.0360 -0.8825  0.2293
21450SOL     OW64527   7.370   1.020   6.673  0.0610  0.3657 -0.3141
21450SOL    HW164528   7.346   1.117   6.667  0.9791  0.6104 -0.2345
21450SOL    HW264529   7.390   0.997   6.768 -0.6550 -0.0345 -0.2549
21451SOL     OW64530   2.674   7.335   7.215 -0.5656  0.4997  0.3282
21451SOL    HW164531   2.719   7.375   7.135 -0.6341  1.2258  0.6462
21451SOL    HW264532   2.597   7.279   7.186 -0.4834  0.6193 -0.1204
21452SOL     OW64533   0.604   4.508   3.804  0.0528 -0.3179  0.0378
21452SOL    HW164534   0.602   4.436   3.874  0.3192 -0.6396 -0.2830
21452SOL    HW264535   0.538   4.487   3.732  0.9054 -0.8141 -0.6116
21453SOL     OW64536   8.563   7.519   0.544  0.2764  0.1181 -0.3948
21453SOL    HW164537   8.614   7.552   0.623  0.3155 -0.9734  0.0535
21453SOL    HW264538   8.523   7.429   0.564 -0.6635  0.3293 -1.2233
21454SOL     OW64539   6.981   2.310   0.511  0.1765 -0.1690 -0.4635
21454SOL    HW164540   6.969   2.230   0.570 -0.5475 -0.4683 -1.0037
21454SOL    HW264541   6.963   2.393   0.564 -0.4317 -0.4342 -0.2478
21455SOL     OW64542   3.563   4.098   7.385 -0.0001 -0.5804 -0.0290
21455SOL    HW164543   3.568   4.143   7.474 -0.3134  1.1344 -0.8446
21455SOL    HW264544   3.631   4.138   7.324 -0.5625 -0.9541 -0.9111
21456SOL     OW64545   0.147   4.349   0.058 -0.0475 -0.1657 -0.0785
21456SOL    HW164546   0.189   4.322  -0.028 -1.1536 -1.4022 -0.2433
21456SOL    HW264547   0.049   4.365   0.045  0.1923  2.0304  0.4466
21457SOL     OW64548   2.136   0.658   8.664  0.1994 -0.5773 -0.0440
21457SOL    HW164549   2.169   0.703   8.748 -1.0209  1.2849 -0.4911
21457SOL    HW264550   2.056   0.602   8.685 -0.7223  0.6869 -0.0831
21458SOL     OW64551   6.364   1.824   7.997  0.1300 -0.0540 -0.0674
21458SOL    HW164552   6.311   1.760   8.051  1.0100 -1.0671 -0.3749
21458SOL    HW264553   6.462   1.809   8.013  0.4162 -0.2405 -1.7475
21459SOL     OW64554   0.321   3.719   4.509  0.1944 -0.6773  0.6512
21459SOL    HW164555   0.275   3.630   4.515 -1.0707 -0.1281 -0.3737
21459SOL    HW264556   0.322   3.763   4.599 -2.1771 -0.3062  0.5625
21460SOL     OW64557   4.228   4.160   2.946  0.0360  0.4486  0.3075
21460SOL    HW164558   4.310   4.103   2.940  0.2443  0.8496 -1.0287
21460SOL    HW264559   4.234   4.234   2.879 -0.7919  1.3113  1.1684
21461SOL     OW64560   7.937   1.272   2.478  0.6261  0.3057  0.2661
21461SOL    HW164561   7.843   1.239   2.484  0.0865  1.6978 -0.1514
21461SOL    HW264562   7.983   1.257   2.566  0.0867 -0.5484  0.4165
21462SOL     OW64563   1.874   4.911   0.901  0.9757  0.6495  0.4955
21462SOL    HW164564   1.830   4.822   0.917  0.7125  0.2412 -2.0240
21462SOL    HW264565   1.817   4.983   0.940 -0.0959 -0.1379  0.4471
21463SOL     OW64566   5.710   2.462   0.106 -0.5557 -0.5072 -0.3906
21463SOL    HW164567   5.676   2.555   0.117  0.4988 -0.2633  1.1369
21463SOL    HW264568   5.781   2.460   0.036 -0.9624 -0.2849 -0.8149
21464SOL     OW64569   8.289   0.312   8.657  0.7506  0.2129 -0.4740
21464SOL    HW164570   8.255   0.394   8.704 -0.0029  0.6239 -1.6922
21464SOL    HW264571   8.252   0.309   8.565  0.6277 -1.6192 -0.3939
21465SOL     OW64572   4.701   5.881   4.066  0.2351  0.0555  0.4060
21465SOL    HW164573   4.673   5.969   4.027 -2.5790 -1.1349 -0.5894
21465SOL    HW264574   4.782   5.848   4.019 -1.2607  0.1269 -2.4708
21466SOL     OW64575   7.082   0.350   5.090 -0.6071 -0.8205  0.0614
21466SOL    HW164576   7.135   0.266   5.085 -0.7946 -0.8866 -2.8593
21466SOL    HW264577   7.001   0.342   5.032 -0.4331  1.4770 -0.6090
21467SOL     OW64578   5.417   1.639   0.413  1.3654 -0.4070  0.2340
21467SOL    HW164579   5.380   1.565   0.357 -1.3154  0.7570  0.2829
21467SOL    HW264580   5.489   1.686   0.362  1.1031 -1.2703 -0.9794
21468SOL     OW64581   2.078   2.915   5.008  0.2989 -0.4420 -0.0430
21468SOL    HW164582   2.026   2.892   5.090 -1.1020  1.2979 -0.3926
21468SOL    HW264583   2.049   2.856   4.932 -0.6370 -0.0134 -0.0344
21469SOL     OW64584   3.147   1.466   4.372 -0.1492 -0.3838  0.3084
21469SOL    HW164585   3.105   1.503   4.454  2.3320 -0.0111  1.4935
21469SOL    HW264586   3.245   1.488   4.371  0.1397 -1.3865 -2.1784
21470SOL     OW64587   3.436   8.280   7.744  0.3264  0.2886 -0.3008
21470SOL    HW164588   3.455   8.357   7.805  3.3401 -0.5519 -0.0332
21470SOL    HW264589   3.521   8.235   7.719 -1.0040 -0.9286 -3.2031
21471SOL     OW64590   5.709   1.462   7.080 -0.4025  0.5201  0.0965
21471SOL    HW164591   5.753   1.542   7.120 -2.1156  3.8540 -3.8322
21471SOL    HW264592   5.759   1.435   6.998 -1.7137 -0.1727 -0.5047
21472SOL     OW64593   6.268   0.658   2.379  0.3731  0.4040  0.3732
21472SOL    HW164594   6.200   0.717   2.422 -0.3373 -0.2172  0.1242
21472SOL    HW264595   6.308   0.597   2.448 -1.3352 -1.1395  0.0656
21473SOL     OW64596   6.760   6.732   3.987  0.0930 -0.4489  0.2698
21473SOL    HW164597   6.765   6.814   4.043 -0.8871  0.3599 -0.7635
21473SOL    HW264598   6.693   6.669   4.026  0.2592 -0.3986  0.6342
21474SOL     OW64599   1.903   6.248   6.083 -0.8085 -0.4926  0.2375
21474SOL    HW164600   1.811   6.284   6.068 -0.0955  1.6790  0.7281
21474SOL    HW264601   1.897   6.155   6.118 -2.8386 -0.2399  0.6832
21475SOL     OW64602   6.160   6.893   0.265 -0.2300  0.0974  0.1629
21475SOL    HW164603   6.177   6.944   0.349 -2.8883 -0.0676  0.8559
21475SOL    HW264604   6.234   6.827   0.251  0.0846 -0.1244  2.5457
21476SOL     OW64605   5.390   2.815   0.778  0.2555  0.0089 -0.2084
21476SOL    HW164606   5.307   2.827   0.833 -0.4738 -0.5527 -1.1601
21476SOL    HW264607   5.469   2.804   0.839 -0.0847  2.2606  0.7207
21477SOL     OW64608   4.375   1.612   8.359 -0.6936 -0.4505  0.1767
21477SOL    HW164609   4.286   1.577   8.329 -0.5268 -1.3955  0.7305
21477SOL    HW264610   4.442   1.537   8.357 -0.0793  0.0834  0.4444
21478SOL     OW64611   4.513   4.770   8.332  0.1036 -0.0410  0.2560
21478SOL    HW164612   4.584   4.704   8.306  0.2224  0.6068 -1.1252
21478SOL    HW264613   4.463   4.735   8.412  2.1775 -0.3539  1.4993
21479SOL     OW64614   2.598   4.966   7.576 -0.5462 -0.6120  0.2409
21479SOL    HW164615   2.667   4.992   7.508 -0.6072 -1.0151  0.0227
21479SOL    HW264616   2.623   5.004   7.665 -0.9529  0.7140 -0.1864
21480SOL     OW64617   2.535   7.189   7.673 -0.1874 -0.7337  0.3182
21480SOL    HW164618   2.499   7.166   7.582 -0.2214 -1.6387  0.5498
21480SOL    HW264619   2.463   7.179   7.741 -0.1481 -0.1021  0.4564
21481SOL     OW64620   7.520   4.446   1.869  0.1363  0.2111 -0.3611
21481SOL    HW164621   7.522   4.385   1.790 -1.6311  0.9648 -1.0416
21481SOL    HW264622   7.455   4.411   1.937  1.1152 -0.0567  0.4588
21482SOL     OW64623   5.510   0.205   0.056 -0.4003 -0.1812 -0.0691
21482SOL    HW164624   5.552   0.265  -0.013 -0.6199  2.4013  1.8930
21482SOL    HW264625   5.411   0.211   0.049 -0.4716 -1.6275 -0.8433
21483SOL     OW64626   1.758   2.666   7.471  0.1880  0.3614  0.1315
21483SOL    HW164627   1.837   2.651   7.530 -0.4337 -2.7980  0.3099
21483SOL    HW264628   1.785   2.653   7.375 -0.1616 -1.1386  0.2209
21484SOL     OW64629   0.192   8.645   3.531  0.3162  0.3060 -0.1688
21484SOL    HW164630   0.105   8.688   3.554  0.3155  1.1785 -1.6656
21484SOL    HW264631   0.193   8.622   3.434  1.8933  0.6592 -0.2598
21485SOL     OW64632   4.832   4.753   0.141 -0.0905  0.2811 -0.2132
21485SOL    HW164633   4.801   4.769   0.235  1.2062  0.0049  0.2839
21485SOL    HW264634   4.915   4.697   0.143  0.0529  0.4282 -1.5233
21486SOL     OW64635   8.631   8.554   7.648  0.2404 -0.9577 -0.1358
21486SOL    HW164636   8.535   8.583   7.645  0.7544  0.7783 -0.5723
21486SOL    HW264637   8.653   8.507   7.562 -0.7271 -3.2008  0.7721
21487SOL     OW64638   6.275   6.372   4.792  0.4621 -0.1578  0.4097
21487SOL    HW164639   6.359   6.339   4.836  0.9178 -0.9079 -0.9461
21487SOL    HW264640   6.274   6.472   4.793  2.7109 -0.0082 -1.8144
21488SOL     OW64641   3.678   3.674   2.427 -0.3393 -0.6454  0.7418
21488SOL    HW164642   3.620   3.594   2.446  0.3855 -1.3801 -0.0454
21488SOL    HW264643   3.771   3.656   2.460  0.0922 -0.5736 -0.4093
21489SOL     OW64644   4.044   8.426   7.752  0.4001 -0.1834 -0.1842
21489SOL    HW164645   3.947   8.442   7.733 -0.4817 -0.6799  3.2327
21489SOL    HW264646   4.093   8.513   7.752 -0.6986  0.4742  0.8311
21490SOL     OW64647   5.744   1.120   2.973  0.4728  0.1283 -0.4935
21490SOL    HW164648   5.670   1.144   3.037  0.0805 -0.9488 -0.5296
21490SOL    HW264649   5.723   1.034   2.928  1.2597  0.3428 -1.3032
21491SOL     OW64650   3.385   1.566   8.584 -0.7436 -0.2140  0.3689
21491SOL    HW164651   3.372   1.584   8.487 -0.9166  0.0280  0.4364
21491SOL    HW264652   3.482   1.573   8.607 -0.8976  1.9058  0.6289
21492SOL     OW64653   1.843   6.817   0.010  1.1989 -0.0539 -0.5143
21492SOL    HW164654   1.820   6.745  -0.057  1.0609 -0.4013 -0.0983
21492SOL    HW264655   1.930   6.860  -0.016  0.1563  1.2216 -2.0638
21493SOL     OW64656   5.290   2.615   3.457 -0.0592 -0.3585  0.2782
21493SOL    HW164657   5.217   2.660   3.406 -1.2221 -1.4679  0.8915
21493SOL    HW264658   5.340   2.683   3.510  0.0976  0.5777 -1.0132
21494SOL     OW64659   0.264   2.592   0.406  0.1587 -0.1238 -0.5000
21494SOL    HW164660   0.183   2.625   0.456  1.0327 -1.8961  2.3551
21494SOL    HW264661   0.251   2.496   0.382  2.1915 -1.2219  2.2153
21495SOL     OW64662   1.617   2.950   8.117 -0.2228 -0.0027 -0.0245
21495SOL    HW164663   1.637   2.856   8.089 -0.5878 -0.4268  1.0575
21495SOL    HW264664   1.607   2.953   8.217  0.1469  1.2577 -0.0117
21496SOL     OW64665   0.508   3.839   7.935  0.2844  0.0237  0.9285
21496SOL    HW164666   0.411   3.852   7.916  0.4958 -0.0859 -0.3262
21496SOL    HW264667   0.522   3.752   7.981 -0.2019  0.0228  1.0811
21497SOL     OW64668   4.516   7.993   1.454 -0.3520  0.3091 -0.5421
21497SOL    HW164669   4.515   8.061   1.527  0.3884 -0.5372  0.2860
21497SOL    HW264670   4.513   8.038   1.365  1.4009  1.4790 -0.0413
21498SOL     OW64671   4.456   4.555   4.816  0.3291 -0.8945 -0.6379
21498SOL    HW164672   4.439   4.644   4.860 -0.5757 -1.6408  0.5848
21498SOL    HW264673   4.468   4.568   4.718 -2.2292  0.3436 -0.8666
21499SOL     OW64674   1.582   7.340   4.377 -0.1711 -0.5314 -0.7858
21499SOL    HW164675   1.553   7.434   4.362 -0.8363 -0.8859 -1.8162
21499SOL    HW264676   1.657   7.317   4.315 -2.1682 -1.6498 -2.9222
21500SOL     OW64677   8.767   6.054   5.065 -0.3149  0.1855  0.5742
21500SOL    HW164678   8.748   5.963   5.103  0.8810  0.0609  0.9467
21500SOL    HW264679   8.689   6.086   5.012 -1.8576  0.1153  2.6763
21501SOL     OW64680   4.462   5.842   7.944 -0.3010 -0.0110  0.1258
21501SOL    HW164681   4.487   5.904   7.869 -0.6246 -1.1212 -0.9316
21501SOL    HW264682   4.363   5.844   7.957 -0.1032  1.5514  1.7929
21502SOL     OW64683   1.213   2.709   8.666  0.5569 -0.1022  0.3054
21502SOL    HW164684   1.187   2.760   8.584  0.7130 -0.0855  0.2655
21502SOL    HW264685   1.206   2.768   8.746  2.6711  0.6139  0.0232
21503SOL     OW64686   8.311   6.103   1.046  0.5444 -0.0112  0.3940
21503SOL    HW164687   8.363   6.093   1.131  1.6367  0.7250 -0.1526
21503SOL    HW264688   8.234   6.040   1.045  1.4363 -1.1382  1.2510
21504SOL     OW64689   0.111   6.787   6.641 -0.0446 -0.5231 -0.3810
21504SOL    HW164690   0.184   6.721   6.623 -0.8547 -1.9385  1.1996
21504SOL    HW264691   0.024   6.738   6.653 -0.6086  0.7717  1.1626
21505SOL     OW64692   2.498   0.280   2.324  0.0468  0.2013 -0.3414
21505SOL    HW164693   2.468   0.247   2.234  0.0438  0.8870 -0.5997
21505SOL    HW264694   2.500   0.380   2.324 -1.5337  0.2806  0.9235
21506SOL     OW64695   2.695   7.481   0.763  0.5707 -0.5751 -0.4568
21506SOL    HW164696   2.745   7.544   0.823 -0.2251  0.3921 -0.7884
21506SOL    HW264697   2.665   7.401   0.815  0.4588 -0.0574  0.2785
21507SOL     OW64698   2.496   3.873   7.377 -0.0388 -0.5946 -0.0181
21507SOL    HW164699   2.497   3.950   7.441  0.7392 -0.1020 -0.5996
21507SOL    HW264700   2.403   3.837   7.370 -0.3254 -0.0092  0.6194
21508SOL     OW64701   4.781   0.300   4.792 -0.7428  0.0479  0.3672
21508SOL    HW164702   4.866   0.248   4.796  0.4916  1.9025 -0.1768
21508SOL    HW264703   4.752   0.309   4.696 -1.4978 -0.4801  0.5421
21509SOL     OW64704   3.831   2.642   4.596 -0.2631  0.2140  0.3388
21509SOL    HW164705   3.842   2.643   4.696 -0.6101 -1.1148  0.4143
21509SOL    HW264706   3.792   2.729   4.566 -0.0518  0.6750  1.3470
21510SOL     OW64707   1.443   8.499   1.511  0.1456  0.3440  0.4349
21510SOL    HW164708   1.421   8.439   1.587  2.3166 -0.4627  0.4868
21510SOL    HW264709   1.542   8.516   1.509  0.4134 -0.8245 -3.0060
21511SOL     OW64710   6.759   5.974   0.925  0.1286  0.2405  0.4544
21511SOL    HW164711   6.736   5.889   0.973 -0.4780  0.1886  0.0788
21511SOL    HW264712   6.849   6.005   0.955 -0.7079  0.8384  2.5451
21512SOL     OW64713   6.172   2.483   1.291 -0.0597  0.4984 -0.1356
21512SOL    HW164714   6.105   2.538   1.340 -0.4544  0.0475 -0.1666
21512SOL    HW264715   6.153   2.487   1.193 -0.1853  0.1804 -0.1246
21513SOL     OW64716   6.023   3.274   5.788 -0.0123  0.0830 -0.1392
21513SOL    HW164717   6.021   3.315   5.880 -0.5169 -0.0132 -0.1031
21513SOL    HW264718   6.118   3.266   5.757  0.1335  0.5851  0.1656
21514SOL     OW64719   2.859   0.129   6.101  0.2163 -0.5702  0.6346
21514SOL    HW164720   2.936   0.082   6.058  0.1684 -0.8974  0.9081
21514SOL    HW264721   2.808   0.180   6.032  0.3246 -0.8418  0.3544
21515SOL     OW64722   6.475   1.570   6.767 -0.2425 -0.3040 -0.1650
21515SOL    HW164723   6.449   1.638   6.836 -2.1679  0.7514 -1.8016
21515SOL    HW264724   6.572   1.579   6.747 -0.1593  1.0375  0.6704
21516SOL     OW64725   4.123   3.352   2.084  0.5858 -0.2217  0.4029
21516SOL    HW164726   4.079   3.394   2.164  0.8311 -0.4054  0.6350
21516SOL    HW264727   4.134   3.254   2.099 -1.5339 -0.7156 -0.8347
21517SOL     OW64728   3.144   6.580   7.830  0.3418  0.0064  0.3558
21517SOL    HW164729   3.063   6.534   7.793  1.5656  0.4862 -3.3139
21517SOL    HW264730   3.132   6.679   7.823  0.7870  0.1183  1.0455
21518SOL     OW64731   6.870   2.465   6.362  0.8326 -0.2602 -0.3579
21518SOL    HW164732   6.782   2.464   6.315  0.9617  2.7195 -0.8507
21518SOL    HW264733   6.936   2.519   6.310  1.9210  0.4716  1.6426
21519SOL     OW64734   4.645   7.171   1.742  0.9020 -0.1090 -0.4494
21519SOL    HW164735   4.586   7.229   1.686  0.7564 -0.6160 -0.8228
21519SOL    HW264736   4.715   7.228   1.785 -0.5866  0.6993  1.0035
21520SOL     OW64737   2.853   1.509   5.699 -0.1625  0.3255  0.4270
21520SOL    HW164738   2.769   1.471   5.663  0.3980  0.8883 -1.6039
21520SOL    HW264739   2.842   1.608   5.714  0.5702  0.7319 -1.4285
21521SOL     OW64740   5.245   4.336   1.612  0.1589  0.0601 -0.2814
21521SOL    HW164741   5.254   4.381   1.701 -0.1107  1.4641 -0.9417
21521SOL    HW264742   5.186   4.256   1.621  0.5459 -0.1136  0.8971
21522SOL     OW64743   7.688   2.736   4.729 -0.5265  0.2412  0.3048
21522SOL    HW164744   7.646   2.736   4.638  0.2495 -1.7843 -0.0950
21522SOL    HW264745   7.616   2.729   4.798 -1.0631  0.7621 -0.1885
21523SOL     OW64746   2.181   1.756   3.468  0.3097 -0.3266  0.6429
21523SOL    HW164747   2.088   1.721   3.476 -0.0729  0.1612 -1.1240
21523SOL    HW264748   2.179   1.853   3.443  1.2975 -0.1834  1.0467
21524SOL     OW64749   7.804   8.123   5.341 -0.1950  0.3581  0.0190
21524SOL    HW164750   7.896   8.153   5.315  0.5408 -0.7595  1.1893
21524SOL    HW264751   7.801   8.107   5.440 -2.2371  2.2797  0.3566
21525SOL     OW64752   8.594   1.478   7.968 -0.1939 -0.2618 -0.0082
21525SOL    HW164753   8.580   1.432   7.880  0.6109 -1.4818  0.4733
21525SOL    HW264754   8.687   1.462   7.999  0.3288  2.2444 -0.0850
21526SOL     OW64755   0.060   7.037   4.772 -0.2332  0.5338 -0.1409
21526SOL    HW164756   0.003   7.064   4.694 -2.2213 -0.6871  0.8029
21526SOL    HW264757   0.055   7.107   4.843 -0.2302  0.6285 -0.2341
21527SOL     OW64758   5.746   1.936   6.525  0.0581 -0.0153 -0.0049
21527SOL    HW164759   5.776   1.916   6.618 -1.5888 -3.6666 -0.0690
21527SOL    HW264760   5.701   2.025   6.522  2.6598  1.4839  1.9697
21528SOL     OW64761   2.268   0.852   2.506  0.1850 -0.2158  0.2169
21528SOL    HW164762   2.354   0.902   2.503  1.1340 -1.7625  0.2942
21528SOL    HW264763   2.192   0.913   2.483  1.1964  1.3651  0.9474
21529SOL     OW64764   7.197   8.364   2.482  0.2510 -0.5977 -0.7795
21529SOL    HW164765   7.138   8.429   2.531  2.4803  1.9418 -1.2412
21529SOL    HW264766   7.210   8.395   2.388  1.1075 -1.9373 -1.1252
21530SOL     OW64767   5.615   2.344   7.739 -0.2160 -0.3872  0.5591
21530SOL    HW164768   5.594   2.277   7.810  0.1144  0.3389  1.3626
21530SOL    HW264769   5.662   2.299   7.663  0.5342 -0.9715  1.3473
21531SOL     OW64770   4.479   7.666   6.445 -0.0743  0.1565 -0.3998
21531SOL    HW164771   4.403   7.644   6.507 -1.5447 -0.2091 -2.2624
21531SOL    HW264772   4.491   7.765   6.442 -0.6720  0.2353 -0.3099
21532SOL     OW64773   5.135   3.033   8.717 -0.7598 -0.2211 -0.2521
21532SOL    HW164774   5.070   3.086   8.772  0.3649 -0.1770  1.0884
21532SOL    HW264775   5.156   2.947   8.763  1.5751  0.5922  0.3752
21533SOL     OW64776   2.893   2.684   5.015  0.0023  0.3637 -0.2357
21533SOL    HW164777   2.820   2.748   4.991  0.1058  0.7213  0.3948
21533SOL    HW264778   2.865   2.630   5.094 -0.2088 -0.5902 -0.9511
21534SOL     OW64779   5.314   8.710   3.986 -0.0047  0.3756  0.8207
21534SOL    HW164780   5.382   8.731   3.915 -1.6010  0.6495 -0.7137
21534SOL    HW264781   5.355   8.721   4.076  1.5995  1.8810 -0.0332
21535SOL     OW64782   6.836   6.604   4.496  0.2435  0.8565 -0.2517
21535SOL    HW164783   6.755   6.661   4.502  1.3435  2.3936  0.9068
21535SOL    HW264784   6.889   6.612   4.581  0.0862 -2.5192  0.2931
21536SOL     OW64785   7.914   4.937   6.097 -0.0129  0.1066  0.2052
21536SOL    HW164786   7.942   5.006   6.164 -1.7989 -0.7919  1.9808
21536SOL    HW264787   7.829   4.966   6.054 -0.5247 -0.7284  0.6228
21537SOL     OW64788   3.961   8.084   5.313  0.3970 -0.2048  0.5009
21537SOL    HW164789   3.879   8.037   5.347  1.8761 -2.4153  1.2186
21537SOL    HW264790   4.017   8.020   5.261  1.6218  1.3088 -0.1158
21538SOL     OW64791   6.043   2.338   0.382  0.0296  0.0792 -0.2616
21538SOL    HW164792   5.989   2.280   0.322  0.6534  0.1685 -0.9264
21538SOL    HW264793   6.124   2.288   0.413 -0.2743  0.0397  0.4977
21539SOL     OW64794   7.616   8.220   6.746  0.3168  0.1782 -0.3377
21539SOL    HW164795   7.610   8.304   6.801  0.2862 -1.1212  1.7546
21539SOL    HW264796   7.614   8.244   6.649 -3.6496  2.4309  0.0427
21540SOL     OW64797   4.375   1.976   2.171  0.6616  0.4364  0.3097
21540SOL    HW164798   4.317   2.001   2.093 -0.1156  0.5357  0.9070
21540SOL    HW264799   4.422   1.890   2.151 -0.0707  0.0944  0.0009
21541SOL     OW64800   2.891   4.850   2.968  0.6463  0.3066 -0.1492
21541SOL    HW164801   2.939   4.912   2.906  2.9694 -0.5226  0.7015
21541SOL    HW264802   2.934   4.759   2.964 -2.2998 -1.1744 -0.9500
21542SOL     OW64803   5.857   7.176   2.704  0.6517 -0.3165  0.5260
21542SOL    HW164804   5.892   7.165   2.797 -0.1728  0.9262  1.0137
21542SOL    HW264805   5.934   7.191   2.641  1.1234  1.0500  1.3760
21543SOL     OW64806   6.749   1.127   1.417 -0.7924 -0.8810 -0.4255
21543SOL    HW164807   6.785   1.146   1.509 -2.8137  1.4155 -0.0037
21543SOL    HW264808   6.820   1.085   1.361  1.3973  0.2566  1.3460
21544SOL     OW64809   4.851   2.951   6.205  0.4576 -0.0728 -0.0908
21544SOL    HW164810   4.840   3.017   6.130 -0.4864 -1.9060 -1.6602
21544SOL    HW264811   4.761   2.930   6.244  0.0511 -3.4293 -2.4251
21545SOL     OW64812   8.716   5.983   8.460 -0.3320  1.0406  0.2818
21545SOL    HW164813   8.630   6.018   8.495 -1.2963 -1.5582  0.7637
21545SOL    HW264814   8.726   5.887   8.487  2.5163  1.1305 -0.1465
21546SOL     OW64815   0.179   8.620   5.142 -0.1769  0.5382  0.1688
21546SOL    HW164816   0.220   8.678   5.072 -0.3749  0.9362  0.3756
21546SOL    HW264817   0.122   8.677   5.202 -1.1637 -0.0293 -0.2111
21547SOL     OW64818   8.370   3.732   7.259  0.1538  0.3690  0.0069
21547SOL    HW164819   8.349   3.760   7.165 -0.6483 -0.9873 -0.2529
21547SOL    HW264820   8.418   3.644   7.258  0.7636  0.6794  0.8448
21548SOL     OW64821   5.461   1.338   2.323  0.0037  0.3942  0.4250
21548SOL    HW164822   5.434   1.411   2.260  0.5036 -0.0122 -0.2583
21548SOL    HW264823   5.384   1.276   2.337  0.5583 -0.8586 -1.6531
21549SOL     OW64824   3.348   2.329   1.875  0.0392 -0.0800 -0.3557
21549SOL    HW164825   3.333   2.295   1.782 -1.3848 -0.7125  0.0801
21549SOL    HW264826   3.415   2.270   1.920  0.8927  0.3487 -1.0225
21550SOL     OW64827   2.192   7.985   1.236  0.1745 -0.3899 -0.0398
21550SOL    HW164828   2.143   8.032   1.163  0.8038 -1.2021 -1.0025
21550SOL    HW264829   2.161   8.021   1.324 -1.9401 -0.6570 -0.6086
21551SOL     OW64830   4.163   1.257   6.109 -0.6002  0.3955  0.7692
21551SOL    HW164831   4.165   1.340   6.164  1.5562  0.8528  0.1130
21551SOL    HW264832   4.240   1.198   6.135 -0.2209  0.0992 -0.9017
21552SOL     OW64833   2.853   0.613   8.120 -0.5398 -0.3075  0.1721
21552SOL    HW164834   2.853   0.636   8.023  0.8843  0.1391  0.2471
21552SOL    HW264835   2.819   0.691   8.173 -1.0829 -0.4627  0.0590
21553SOL     OW64836   6.873   1.287   5.849  0.3599 -0.0661 -0.9018
21553SOL    HW164837   6.899   1.190   5.847 -3.3688 -1.2663 -3.8360
21553SOL    HW264838   6.836   1.313   5.759  1.6921  4.3196 -0.3813
21554SOL     OW64839   0.318   3.703   4.797 -0.4310 -0.2333  0.5469
21554SOL    HW164840   0.405   3.752   4.807 -0.9891  0.9404 -0.0856
21554SOL    HW264841   0.271   3.701   4.885  0.1139 -0.6439  0.8335
21555SOL     OW64842   4.114   8.177   2.985  0.0499  0.1086  0.0688
21555SOL    HW164843   4.060   8.253   3.021 -0.9502 -0.6180  0.1502
21555SOL    HW264844   4.169   8.138   3.059 -0.5737 -0.1928  0.3801
21556SOL     OW64845   2.125   2.417   7.358  0.3375  0.0208 -0.5650
21556SOL    HW164846   2.027   2.398   7.366  0.5064 -1.9161 -2.3344
21556SOL    HW264847   2.161   2.441   7.448 -1.6868  0.5635  0.1651
21557SOL     OW64848   2.191   1.907   3.717  0.4321  0.0105 -0.1274
21557SOL    HW164849   2.233   1.842   3.654 -0.5504 -1.5077  0.7177
21557SOL    HW264850   2.096   1.880   3.735  0.9313 -0.1759  2.6670
21558SOL     OW64851   8.709   2.948   7.878 -0.2764  0.0368 -0.0146
21558SOL    HW164852   8.711   2.866   7.936 -1.6957 -0.1141 -0.1479
21558SOL    HW264853   8.615   2.966   7.849 -0.1188  2.1715  0.6487
21559SOL     OW64854   6.674   4.194   7.180  0.8065  0.0215  0.3418
21559SOL    HW164855   6.772   4.182   7.170  0.8059 -1.7462  1.8912
21559SOL    HW264856   6.649   4.289   7.163  2.5741  0.2180 -1.4089
21560SOL     OW64857   6.283   8.143   5.761 -0.2564 -0.2449  0.2217
21560SOL    HW164858   6.361   8.205   5.771  0.0159 -0.4163 -0.7610
21560SOL    HW264859   6.309   8.065   5.703 -2.0268  1.3109 -2.9216
21561SOL     OW64860   7.036   4.152   6.547 -0.6505  0.0240 -0.1529
21561SOL    HW164861   7.056   4.157   6.645  2.4337  0.4844 -0.6748
21561SOL    HW264862   7.025   4.057   6.519 -1.2952 -0.1246  0.5915
21562SOL     OW64863   3.287   3.634   7.832 -0.2778 -0.3666 -0.7466
21562SOL    HW164864   3.314   3.551   7.784 -0.5020 -1.0236  0.2285
21562SOL    HW264865   3.249   3.700   7.767 -0.9725 -1.3862 -1.3931
21563SOL     OW64866   1.663   6.634   6.738 -0.1591 -0.1289  0.2822
21563SOL    HW164867   1.628   6.613   6.829 -0.1440  0.2074  0.3697
21563SOL    HW264868   1.615   6.714   6.701  0.3761  0.2264  0.3309
21564SOL     OW64869   8.030   5.733   5.341  0.2372 -0.1127 -0.5226
21564SOL    HW164870   8.024   5.634   5.325  0.1505 -0.1046 -0.5375
21564SOL    HW264871   8.126   5.761   5.338  0.3176 -0.3044  0.0921
21565SOL     OW64872   3.095   0.043   4.895 -0.3239  0.6290 -0.7295
21565SOL    HW164873   3.031   0.065   4.821 -1.0404 -0.4187 -0.4472
21565SOL    HW264874   3.152   0.123   4.914 -1.6384  1.6574 -0.9098
21566SOL     OW64875   8.098   8.283   4.205 -0.3740  0.0541 -0.0755
21566SOL    HW164876   8.111   8.229   4.122  0.8824 -0.1242  0.2178
21566SOL    HW264877   8.174   8.266   4.268 -0.8555  0.8604  0.7483
21567SOL     OW64878   8.723   1.911   7.102  0.1610  0.0884 -0.6023
21567SOL    HW164879   8.758   2.002   7.083 -1.3404  0.3660 -2.2841
21567SOL    HW264880   8.800   1.847   7.109  1.1295  1.0753 -1.7175
21568SOL     OW64881   1.508   1.471   2.720  0.6557  0.7382  0.0818
21568SOL    HW164882   1.485   1.500   2.627  1.8652  2.9122  0.3850
21568SOL    HW264883   1.465   1.533   2.785  1.7842  0.7181  0.8656
21569SOL     OW64884   5.148   3.518   5.216 -0.1574 -0.1092  0.6153
21569SOL    HW164885   5.247   3.508   5.211 -0.0958  0.7205 -0.1707
21569SOL    HW264886   5.125   3.613   5.237 -0.7715 -0.5721  2.1631
21570SOL     OW64887   3.360   6.450   0.623 -0.4488 -0.3018 -0.0096
21570SOL    HW164888   3.271   6.473   0.661 -0.1181 -0.6975  1.0605
21570SOL    HW264889   3.390   6.522   0.561 -0.5153  0.9705  1.3804
21571SOL     OW64890   1.856   5.668   8.009  0.2254  0.2654  0.6538
21571SOL    HW164891   1.872   5.622   8.096 -0.2580  2.4424  1.9684
21571SOL    HW264892   1.766   5.643   7.974 -0.3824  0.8179  1.7764
21572SOL     OW64893   5.690   0.708   6.524 -0.1960 -0.0339  0.1377
21572SOL    HW164894   5.710   0.799   6.559  2.1964 -1.0345  1.6416
21572SOL    HW264895   5.649   0.715   6.433  3.0722  2.5179 -1.3559
21573SOL     OW64896   4.135   1.762   4.936 -0.4757  0.4165  0.3268
21573SOL    HW164897   4.071   1.800   4.869 -1.1734 -1.4650 -0.1449
21573SOL    HW264898   4.222   1.743   4.891 -0.8259 -0.5032  0.0086
21574SOL     OW64899   6.029   8.419   7.241  0.2076 -0.5046 -0.3195
21574SOL    HW164900   5.961   8.354   7.276  0.9288 -1.1272 -0.0614
21574SOL    HW264901   6.095   8.441   7.313 -0.5571  1.2744 -0.0922
21575SOL     OW64902   0.262   6.207   3.419  0.3558 -0.1540 -0.3383
21575SOL    HW164903   0.248   6.282   3.355  0.7142  1.9422  1.8756
21575SOL    HW264904   0.360   6.190   3.429  0.4402  1.0117  1.1579
21576SOL     OW64905   8.605   4.887   7.513 -0.3641 -0.1872 -0.4415
21576SOL    HW164906   8.653   4.873   7.599 -0.7958  0.2183 -0.1271
21576SOL    HW264907   8.671   4.913   7.442  0.0040 -0.6125 -0.2576
21577SOL     OW64908   1.823   6.040   5.104 -0.1172 -0.2244 -0.2313
21577SOL    HW164909   1.804   5.975   5.178 -0.2655 -1.8452 -1.6275
21577SOL    HW264910   1.831   5.991   5.018 -0.6345  1.6773 -1.4327
21578SOL     OW64911   6.296   6.959   5.529  0.2646 -0.3277  0.0030
21578SOL    HW164912   6.290   6.862   5.550  2.8138 -0.4170  0.5443
21578SOL    HW264913   6.310   7.011   5.613 -0.7888  0.5067 -0.3164
21579SOL     OW64914   8.545   4.587   6.013  0.6429 -0.5268 -0.1052
21579SOL    HW164915   8.621   4.643   5.981  0.5122 -0.8818 -1.0492
21579SOL    HW264916   8.476   4.578   5.941  0.0899 -0.8974  0.4531
21580SOL     OW64917   6.951   2.103   0.700  0.4781 -0.3502  0.1788
21580SOL    HW164918   6.888   2.136   0.770 -0.2468  0.0809 -0.6618
21580SOL    HW264919   7.045   2.128   0.724  0.1311  0.6757  0.4968
21581SOL     OW64920   6.293   1.509   1.736  0.0388 -0.5987 -0.1241
21581SOL    HW164921   6.204   1.541   1.769  0.5636  3.2419 -1.9180
21581SOL    HW264922   6.280   1.440   1.666 -1.4979 -0.5074  0.0475
21582SOL     OW64923   1.481   1.030   0.112  0.5005 -0.0613  0.2151
21582SOL    HW164924   1.468   1.046   0.210 -0.3317  2.0586 -0.1832
21582SOL    HW264925   1.449   0.938   0.089 -1.2106  0.1396  1.5930
21583SOL     OW64926   3.662   4.006   8.218 -0.2247  0.3567 -0.2313
21583SOL    HW164927   3.680   3.978   8.124 -0.5262 -0.0896 -0.1580
21583SOL    HW264928   3.736   4.066   8.249 -0.2920  0.7896 -0.8647
21584SOL     OW64929   8.758   6.518   5.264  0.5209  1.0785  0.7163
21584SOL    HW164930   8.745   6.539   5.361 -1.5629  0.8563  0.5348
21584SOL    HW264931   8.777   6.420   5.254 -0.0362  0.9474  0.8699
21585SOL     OW64932   5.216   8.307   3.641 -0.8172  0.7146  0.2041
21585SOL    HW164933   5.186   8.265   3.727 -2.2548  0.9919 -0.1397
21585SOL    HW264934   5.226   8.235   3.571  0.8630  0.4152  0.7020
21586SOL     OW64935   8.274   4.476   2.729  0.3362  0.2410 -0.1528
21586SOL    HW164936   8.273   4.461   2.630  1.2880  0.1084 -0.1519
21586SOL    HW264937   8.198   4.428   2.771 -0.4783  0.8409 -0.8915
21587SOL     OW64938   5.838   7.368   2.156 -0.7618 -0.1205  0.1583
21587SOL    HW164939   5.854   7.460   2.193  2.6277 -0.9154  1.0018
21587SOL    HW264940   5.813   7.306   2.231 -0.4381 -0.4144  0.0238
21588SOL     OW64941   1.951   5.746   4.252 -0.0357  0.1201  0.6997
21588SOL    HW164942   1.987   5.671   4.309  1.1785  0.2175  0.0814
21588SOL    HW264943   1.851   5.749   4.262 -0.1463 -1.7086  0.5802
21589SOL     OW64944   4.300   3.362   5.131 -0.0585 -0.2783 -0.0715
21589SOL    HW164945   4.383   3.371   5.076  0.2795  4.2657  0.7779
21589SOL    HW264946   4.318   3.302   5.209  2.2569  0.0618 -0.2807
21590SOL     OW64947   5.164   0.565   5.935 -0.3050  0.3032 -0.0800
21590SOL    HW164948   5.085   0.514   5.970  0.6010 -0.5286  0.8509
21590SOL    HW264949   5.182   0.538   5.841  0.3144 -1.3665  0.4778
21591SOL     OW64950   2.392   1.780   0.313  0.4590  0.6121  0.0603
21591SOL    HW164951   2.371   1.745   0.404 -1.9902  1.1782 -0.2067
21591SOL    HW264952   2.449   1.861   0.320  2.2098 -0.6147  0.9160
21592SOL     OW64953   7.653   3.176   4.208  0.2975  0.0394  0.3602
21592SOL    HW164954   7.714   3.247   4.243 -0.2987  1.1146 -0.6737
21592SOL    HW264955   7.594   3.143   4.282  1.0218  0.1479  0.9990
21593SOL     OW64956   1.100   4.197   7.733 -0.1298 -0.5553  0.3017
21593SOL    HW164957   1.098   4.099   7.755  1.0821  0.2200  4.9576
21593SOL    HW264958   1.009   4.235   7.747 -0.4254 -0.8196 -0.7770
21594SOL     OW64959   0.892   6.445   4.856 -0.4205 -0.5591 -0.0978
21594SOL    HW164960   0.820   6.379   4.879 -1.4546  1.0270  1.4519
21594SOL    HW264961   0.981   6.399   4.858 -1.2154 -2.1927 -0.4135
21595SOL     OW64962   5.214   6.287   3.542  0.2935 -0.2204 -0.9046
21595SOL    HW164963   5.240   6.199   3.504  0.4829 -0.5795  0.0285
21595SOL    HW264964   5.211   6.355   3.469 -1.3512 -1.3082 -1.9124
21596SOL     OW64965   0.653   5.410   4.420 -0.0454  0.9903 -0.0685
21596SOL    HW164966   0.647   5.311   4.408  0.3217  1.1980 -2.3162
21596SOL    HW264967   0.740   5.434   4.464 -0.0037  0.3376  0.2036
21597SOL     OW64968   2.063   1.804   7.334 -0.9035 -0.5546 -0.0070
21597SOL    HW164969   2.019   1.734   7.277 -1.4364 -0.3090  0.1023
21597SOL    HW264970   2.127   1.857   7.278 -1.4285 -0.3110 -0.3832
21598SOL     OW64971   6.761   8.080   7.930 -0.0827  0.1696 -0.1817
21598SOL    HW164972   6.719   7.991   7.952  1.0624 -0.0759  1.1299
21598SOL    HW264973   6.826   8.068   7.855 -0.7830  0.1426 -0.7961
21599SOL     OW64974   5.732   4.259   3.833  0.4998  0.6897  0.0337
21599SOL    HW164975   5.795   4.282   3.907  0.2242  0.2308  0.4176
21599SOL    HW264976   5.737   4.161   3.814 -0.6004  0.5135  0.5572
21600SOL     OW64977   4.879   5.718   4.420 -0.2556  0.1865 -0.3192
21600SOL    HW164978   4.873   5.643   4.487  0.1318 -0.0872 -0.5840
21600SOL    HW264979   4.789   5.759   4.408 -0.5263 -0.3955 -0.3434
21601SOL     OW64980   8.505   7.383   2.021  0.5609 -0.0421 -0.1042
21601SOL    HW164981   8.523   7.332   2.105 -0.8807  0.4763  0.5552
21601SOL    HW264982   8.485   7.478   2.045  2.1288  0.6071 -1.2206
21602SOL     OW64983   4.787   5.209   8.101  0.1428 -0.5080  0.7615
21602SOL    HW164984   4.774   5.300   8.062  1.2267 -0.5959  0.1906
21602SOL    HW264985   4.739   5.204   8.189  1.1222  1.0458  1.4224
21603SOL     OW64986   8.789   3.458   4.391 -0.4760 -0.3181  0.5722
21603SOL    HW164987   8.764   3.554   4.405 -2.9716 -0.4146 -2.2506
21603SOL    HW264988   8.864   3.453   4.324  1.4453 -0.3470  2.6168
21604SOL     OW64989   6.062   1.749   1.105 -0.0861  0.1331 -0.6655
21604SOL    HW164990   6.130   1.687   1.143  1.6912  0.9225 -2.3893
21604SOL    HW264991   6.046   1.727   1.009  0.2301  2.0123 -1.1894
21605SOL     OW64992   7.401   6.871   1.123 -0.2933  0.0696 -0.3397
21605SOL    HW164993   7.445   6.904   1.040 -0.2979 -1.3732 -0.9550
21605SOL    HW264994   7.315   6.921   1.138 -0.2303  0.4289 -1.1289
21606SOL     OW64995   7.818   1.755   7.803 -0.3552 -0.0257  0.2508
21606SOL    HW164996   7.749   1.762   7.730  0.8985  1.7995 -0.8508
21606SOL    HW264997   7.881   1.680   7.782 -1.8964 -1.6889  1.2497
21607SOL     OW64998   6.244   4.969   6.475  0.5142 -0.1229  0.1487
21607SOL    HW164999   6.149   5.000   6.485  0.0119 -0.5116 -2.5377
21607SOL    HW265000   6.300   5.009   6.547 -1.5075  0.8523  1.2725
21608SOL     OW65001   3.455   2.986   2.300  0.6231  0.2107 -0.1345
21608SOL    HW165002   3.508   3.008   2.218 -0.9189  1.8709 -0.7538
21608SOL    HW265003   3.509   2.927   2.360  2.8520  1.2060 -1.0620
21609SOL     OW65004   5.405   7.128   3.176 -0.1209 -0.6022  0.1018
21609SOL    HW165005   5.368   7.035   3.171 -2.4013  0.2155  0.3245
21609SOL    HW265006   5.381   7.168   3.265 -0.4213  0.6673 -0.5338
21610SOL     OW65007   1.763   6.971   0.750  0.0246  0.5122  0.2852
21610SOL    HW165008   1.740   6.888   0.698 -1.8080  1.1794 -0.0442
21610SOL    HW265009   1.704   6.977   0.830  1.5045  0.5130  1.4196
21611SOL     OW65010   5.096   7.856   5.985 -0.2744  0.0822 -0.6094
21611SOL    HW165011   5.040   7.913   5.925 -1.0139 -0.0873 -0.0863
21611SOL    HW265012   5.182   7.902   6.004  0.7220 -0.5529 -3.1412
21612SOL     OW65013   6.689   2.111   5.429 -0.0748  0.7172 -0.5368
21612SOL    HW165014   6.728   2.090   5.518 -1.5520  1.6456  0.3746
21612SOL    HW265015   6.756   2.091   5.357  1.3049  0.3960  0.7937
21613SOL     OW65016   5.721   8.527   2.566  0.9074  0.2992 -0.0983
21613SOL    HW165017   5.701   8.470   2.486  1.4847 -0.4041  0.2452
21613SOL    HW265018   5.669   8.612   2.560 -0.8114 -0.7076 -0.0942
21614SOL     OW65019   3.247   1.276   6.854 -0.0594  0.0263  0.0328
21614SOL    HW165020   3.246   1.193   6.798 -1.7081 -0.3138  0.5245
21614SOL    HW265021   3.330   1.278   6.909  1.1764 -0.0648 -1.7389
21615SOL     OW65022   7.432   8.728   2.339 -0.0948  0.2226 -0.2873
21615SOL    HW165023   7.406   8.807   2.395 -1.5682 -0.5100  0.1079
21615SOL    HW265024   7.350   8.675   2.316  1.0120 -2.0096  0.6730
21616SOL     OW65025   6.152   6.131   6.361 -0.0813  0.1964 -0.2780
21616SOL    HW165026   6.082   6.127   6.290 -0.7410  0.2428  0.3609
21616SOL    HW265027   6.166   6.040   6.399 -0.7737  0.4205  0.5289
21617SOL     OW65028   1.912   8.017   5.907 -0.1977  0.5686  0.3274
21617SOL    HW165029   1.820   8.040   5.876  0.6708  0.5391 -2.4963
21617SOL    HW265030   1.954   8.098   5.949 -0.7106  1.2588 -0.4615
21618SOL     OW65031   4.184   3.221   0.140 -0.5975  0.2348 -0.1182
21618SOL    HW165032   4.279   3.213   0.111 -0.4696 -1.2265  0.5995
21618SOL    HW265033   4.127   3.159   0.087 -1.1016  0.8479 -0.3057
21619SOL     OW65034   7.454   8.788   5.558 -0.4225 -0.1354  0.5466
21619SOL    HW165035   7.370   8.764   5.511  0.6821 -0.4207 -1.3877
21619SOL    HW265036   7.497   8.706   5.595 -0.1696 -0.2204  0.0723
21620SOL     OW65037   7.354   2.738   7.609  0.3910 -0.9381 -0.2720
21620SOL    HW165038   7.422   2.742   7.682 -0.6223 -0.8875  0.6769
21620SOL    HW265039   7.376   2.807   7.540 -0.5414  1.3912  1.6463
21621SOL     OW65040   6.964   0.012   2.413  0.1511  0.3343 -0.2582
21621SOL    HW165041   7.001  -0.039   2.335 -1.0948  1.8789 -1.9575
21621SOL    HW265042   6.878   0.056   2.386 -0.4770  0.6912  2.1104
21622SOL     OW65043   8.676   4.219   3.536 -0.0238  0.9142 -0.7344
21622SOL    HW165044   8.672   4.318   3.530  0.9166  0.9370 -1.2363
21622SOL    HW265045   8.757   4.186   3.487  0.2786 -0.0181  0.3545
21623SOL     OW65046   5.549   6.263   3.811 -0.2555 -0.0651 -0.2403
21623SOL    HW165047   5.449   6.264   3.815 -0.2976 -1.9415  0.1283
21623SOL    HW265048   5.580   6.331   3.744 -1.7987  0.1376 -0.7973
21624SOL     OW65049   2.725   6.214   2.169 -0.4659 -0.2036  0.4276
21624SOL    HW165050   2.676   6.299   2.185 -1.9198 -1.1665  1.3548
21624SOL    HW265051   2.665   6.149   2.123  0.9318 -0.4357 -1.1548
21625SOL     OW65052   1.711   2.103   4.310 -0.1012 -0.2378  0.4889
21625SOL    HW165053   1.649   2.164   4.360 -0.0827 -0.2295  0.5017
21625SOL    HW265054   1.739   2.028   4.370 -2.0717 -1.6398 -0.2508
21626SOL     OW65055   5.749   4.416   0.298 -0.4072 -0.5193 -0.0186
21626SOL    HW165056   5.662   4.463   0.282  0.0263  0.0633 -0.7006
21626SOL    HW265057   5.824   4.471   0.263  0.3398 -0.5549  1.4422
21627SOL     OW65058   5.670   0.880   2.865 -0.1945  0.2966  0.1780
21627SOL    HW165059   5.694   0.792   2.906  0.2414  0.2881 -0.0974
21627SOL    HW265060   5.681   0.875   2.766  0.6255  0.9039  0.2290
21628SOL     OW65061   1.547   0.727   4.534 -0.3551 -0.6920  0.4309
21628SOL    HW165062   1.628   0.727   4.476  0.4426 -0.7702  1.5244
21628SOL    HW265063   1.475   0.673   4.491 -0.0457 -0.1349 -0.8315
21629SOL     OW65064   2.816   8.772   3.386 -0.0743 -0.2632  0.2740
21629SOL    HW165065   2.873   8.753   3.306  0.0308  1.8772 -0.2131
21629SOL    HW265066   2.871   8.762   3.469  0.5317  0.0174 -0.0839
21630SOL     OW65067   5.644   1.013   7.265 -0.1790  0.1988  0.2120
21630SOL    HW165068   5.546   1.020   7.249 -0.6021  0.5094  2.5807
21630SOL    HW265069   5.682   1.105   7.279 -0.4327 -0.0992  3.5865
21631SOL     OW65070   0.120   7.591   1.865  0.1657 -0.1684  0.0856
21631SOL    HW165071   0.145   7.672   1.917 -2.3085  1.8822 -1.6527
21631SOL    HW265072   0.037   7.550   1.905  0.4576 -0.8694 -0.0118
21632SOL     OW65073   7.750   8.198   5.065  0.5664 -0.0063  0.3169
21632SOL    HW165074   7.838   8.187   5.020  0.1341 -1.1981 -0.2813
21632SOL    HW265075   7.760   8.177   5.163  1.8152  3.9784  1.2232
21633SOL     OW65076   1.506   6.897   3.857  0.7319  0.0564 -0.4741
21633SOL    HW165077   1.544   6.949   3.934 -0.4309 -0.6444  0.5990
21633SOL    HW265078   1.581   6.865   3.799  1.7329 -0.4483  1.0323
21634SOL     OW65079   5.147   1.166   5.089  0.3380  0.2143  0.2880
21634SOL    HW165080   5.198   1.081   5.105 -0.4244 -0.1906  0.6386
21634SOL    HW265081   5.203   1.229   5.036  1.3669 -0.0563  1.0143
21635SOL     OW65082   6.339   6.671   0.767 -0.5321  0.1477  0.5201
21635SOL    HW165083   6.399   6.623   0.831 -0.0132  0.4572  0.2739
21635SOL    HW265084   6.371   6.657   0.674 -0.5569  0.7116  0.4220
21636SOL     OW65085   1.123   8.554   5.250  0.3231  0.3567 -0.2402
21636SOL    HW165086   1.177   8.638   5.241  0.6876  0.5205  2.4951
21636SOL    HW265087   1.045   8.572   5.311  0.9106 -1.4599  1.1374
21637SOL     OW65088   1.980   1.612   1.174 -0.3155  0.4387  0.0659
21637SOL    HW165089   1.957   1.530   1.226 -0.1036  0.3746  0.0579
21637SOL    HW265090   2.078   1.614   1.155  0.5055  2.7273  3.5734
21638SOL     OW65091   6.715   0.079   2.135 -0.2535 -0.6839 -0.3886
21638SOL    HW165092   6.702   0.155   2.199 -1.1637 -0.8543 -0.3537
21638SOL    HW265093   6.808   0.082   2.098  0.7332 -1.2783  1.8586
21639SOL     OW65094   3.510   5.461   8.688  0.4688  0.5714 -0.1267
21639SOL    HW165095   3.552   5.370   8.678 -1.4716 -0.4232  0.3950
21639SOL    HW265096   3.582   5.528   8.703  1.8972 -1.0317  0.6191
21640SOL     OW65097   0.588   6.121   8.348 -0.4860 -0.3913  0.2393
21640SOL    HW165098   0.584   6.121   8.248  0.3289 -0.8358  0.1963
21640SOL    HW265099   0.684   6.121   8.377 -0.6600 -2.4116  0.9917
21641SOL     OW65100   1.481   0.785   8.692 -0.0400 -0.0936 -0.1287
21641SOL    HW165101   1.454   0.703   8.641 -1.2810  0.4017 -0.2934
21641SOL    HW265102   1.485   0.764   8.789 -1.9899  0.0202  0.0192
21642SOL     OW65103   4.455   5.650   7.083 -0.0570  0.2516  0.0718
21642SOL    HW165104   4.506   5.597   7.015 -1.1496 -1.0475  0.2134
21642SOL    HW265105   4.519   5.693   7.147  0.9474  0.7902 -1.2499
21643SOL     OW65106   0.371   1.337   5.325  0.3744  0.2011  0.4855
21643SOL    HW165107   0.377   1.419   5.382  0.7894 -0.1969  1.0290
21643SOL    HW265108   0.418   1.354   5.238  0.0588  0.6898  0.4042
21644SOL     OW65109   6.591   6.903   0.613  0.3072  0.1280 -0.0256
21644SOL    HW165110   6.564   6.940   0.702  0.1351  0.6357 -0.2845
21644SOL    HW265111   6.512   6.902   0.552  0.5852  0.4680 -0.3988
21645SOL     OW65112   7.371   2.915   6.911 -0.0470 -0.2705 -0.3751
21645SOL    HW165113   7.389   2.851   6.836 -2.8071 -3.0031  1.0816
21645SOL    HW265114   7.305   2.984   6.879 -1.3707 -1.5391 -0.4878
21646SOL     OW65115   6.393   7.379   5.385  0.2692  0.0007 -0.3284
21646SOL    HW165116   6.325   7.406   5.453  2.5161  0.0112  2.0729
21646SOL    HW265117   6.413   7.282   5.395  3.0756  0.6419  1.5421
21647SOL     OW65118   1.209   3.016   3.579  0.5504  0.3477 -0.8077
21647SOL    HW165119   1.303   3.042   3.558  0.5526  0.0977 -1.1196
21647SOL    HW265120   1.178   2.948   3.513  0.8950 -1.2108  0.5790
21648SOL     OW65121   4.560   7.740   4.368 -0.1027  0.1643 -0.2370
21648SOL    HW165122   4.633   7.672   4.367 -0.8024 -0.6292  0.5779
21648SOL    HW265123   4.589   7.820   4.421  0.3651  0.0690 -0.3521
21649SOL     OW65124   4.175   7.059   8.564 -0.4573  0.1225 -0.1412
21649SOL    HW165125   4.167   7.140   8.506  0.5618  2.1152  2.3038
21649SOL    HW265126   4.265   7.057   8.607 -1.5297 -0.5240  2.2786
21650SOL     OW65127   0.369   6.741   2.977  0.1926  0.6075 -0.1328
21650SOL    HW165128   0.456   6.736   3.025  0.3990 -1.2318 -0.6273
21650SOL    HW265129   0.294   6.735   3.043  0.4532  0.7125  0.1711
21651SOL     OW65130   1.911   7.669   1.989 -0.7457  0.1457 -0.5473
21651SOL    HW165131   1.921   7.761   1.951 -2.8078  0.0042 -1.5715
21651SOL    HW265132   1.936   7.601   1.919 -1.7107 -0.0827 -0.6863
21652SOL     OW65133   5.362   2.034   8.425  0.6011  0.5966  0.1453
21652SOL    HW165134   5.307   2.117   8.416 -0.4844 -0.1423 -0.2780
21652SOL    HW265135   5.309   1.955   8.394  0.3660 -0.7512  3.4935
21653SOL     OW65136   5.916   6.451   2.070 -0.9981  0.3105 -0.4307
21653SOL    HW165137   5.987   6.441   2.139 -1.9834  0.2963  0.6130
21653SOL    HW265138   5.923   6.377   2.003  1.0929  1.3409 -1.4362
21654SOL     OW65139   7.987   1.197   5.823  0.0054 -0.2591  0.2753
21654SOL    HW165140   8.047   1.255   5.768 -1.7664  0.9048 -0.5200
21654SOL    HW265141   8.039   1.120   5.859  1.7295  0.1419 -1.2095
21655SOL     OW65142   7.526   2.681   5.622  0.2357  0.0909 -0.1415
21655SOL    HW165143   7.623   2.698   5.609  0.3165  0.0643  0.3907
21655SOL    HW265144   7.510   2.583   5.633  0.2538  0.1596  0.5506
21656SOL     OW65145   8.443   5.903   6.543 -0.4128  0.5417  0.2691
21656SOL    HW165146   8.501   5.875   6.619  0.3409 -0.5490 -0.6598
21656SOL    HW265147   8.472   5.993   6.510  0.6311  0.1092 -0.0398
21657SOL     OW65148   1.194   1.762   3.019  0.3012  0.1601  0.0710
21657SOL    HW165149   1.238   1.829   3.079 -1.1853  0.5254  0.8002
21657SOL    HW265150   1.097   1.759   3.039 -0.0048 -0.7013 -1.4221
21658SOL     OW65151   1.776   8.216   8.037 -0.0142 -0.6565  0.1761
21658SOL    HW165152   1.692   8.207   7.984  0.2300  0.7506 -0.4912
21658SOL    HW265153   1.814   8.307   8.024  2.7098 -1.8436 -1.1772
21659SOL     OW65154   4.784   0.937   7.651  0.0973 -0.2732  0.1381
21659SOL    HW165155   4.848   0.956   7.726 -0.0993 -2.0137  0.7984
21659SOL    HW265156   4.835   0.904   7.572  0.1224 -0.6637  0.3125
21660SOL     OW65157   5.794   7.581   8.784  0.2437  0.2979 -0.2582
21660SOL    HW165158   5.775   7.673   8.818 -0.0830 -0.5407  1.9851
21660SOL    HW265159   5.822   7.586   8.688  0.9816  2.8012  0.0205
21661SOL     OW65160   5.233   6.308   7.888 -0.3923  0.6616  0.2784
21661SOL    HW165161   5.248   6.397   7.932  0.1527  0.6626  0.0952
21661SOL    HW265162   5.320   6.260   7.879 -0.8042 -0.3032  1.2427
21662SOL     OW65163   6.999   7.915   6.133 -0.1636  0.2852 -0.4949
21662SOL    HW165164   7.047   7.980   6.074 -0.8529  0.1796 -1.1851
21662SOL    HW265165   6.934   7.964   6.190 -1.1119  0.1595 -1.4388
21663SOL     OW65166   6.222   0.790   5.902  0.4163 -0.0995 -0.8173
21663SOL    HW165167   6.213   0.694   5.873  0.8046  0.0352 -1.3988
21663SOL    HW265168   6.144   0.842   5.868 -0.0199 -0.2918 -0.1296
21664SOL     OW65169   1.345   6.247   8.289  0.0030  0.0259  0.9449
21664SOL    HW165170   1.258   6.198   8.291  0.7826 -1.4093  0.5312
21664SOL    HW265171   1.420   6.183   8.298  1.0364  1.2792  1.5894
21665SOL     OW65172   4.138   1.576   5.129 -0.7238  0.0045  0.5444
21665SOL    HW165173   4.212   1.511   5.109 -0.4792  0.6817 -0.8664
21665SOL    HW265174   4.131   1.642   5.054 -2.4246  0.2765  0.9155
21666SOL     OW65175   8.559   2.664   4.655 -0.5056 -0.3766 -0.0996
21666SOL    HW165176   8.474   2.679   4.705  0.3442  1.0109  1.0007
21666SOL    HW265177   8.614   2.747   4.656 -0.2216 -0.4396 -2.9774
21667SOL     OW65178   3.744   5.173   8.261  0.6753 -0.4063 -0.0774
21667SOL    HW165179   3.731   5.269   8.285  1.4748  0.5986 -3.1420
21667SOL    HW265180   3.730   5.116   8.341  1.8712  2.3733  2.2962
21668SOL     OW65181   5.492   6.386   2.552  0.0935 -0.0752  0.3106
21668SOL    HW165182   5.545   6.389   2.638  1.1905  0.7321 -0.3617
21668SOL    HW265183   5.532   6.318   2.491 -0.7258 -0.6907  0.4541
21669SOL     OW65184   0.138   4.607   8.374  0.5540  0.5355  0.1239
21669SOL    HW165185   0.190   4.526   8.401  2.0950  1.7514  1.0105
21669SOL    HW265186   0.202   4.680   8.348 -0.8119  0.9150 -2.4642
21670SOL     OW65187   0.211   8.773   5.918 -0.1081  0.4422  0.1796
21670SOL    HW165188   0.214   8.845   5.849 -0.4270  0.1063 -0.1869
21670SOL    HW265189   0.117   8.756   5.945  0.0856  1.3821  1.5724
21671SOL     OW65190   3.853   5.235   1.657 -0.5769  0.1315 -0.0595
21671SOL    HW165191   3.849   5.328   1.691  0.1007  0.5469 -1.0701
21671SOL    HW265192   3.840   5.234   1.558  2.5027 -0.4465 -0.5852
21672SOL     OW65193   2.631   8.734   7.001  0.3080  0.5658  0.4091
21672SOL    HW165194   2.610   8.656   7.061  1.2231 -0.8121 -0.9638
21672SOL    HW265195   2.551   8.755   6.945  0.8087 -1.2259 -1.1082
21673SOL     OW65196   3.144   6.003   0.004 -0.0077  0.7083 -0.2972
21673SOL    HW165197   3.172   5.923  -0.050  0.2271  0.0519  0.7607
21673SOL    HW265198   3.214   6.022   0.073 -0.5558  1.1968  0.1298
21674SOL     OW65199   3.005   6.449   6.364  0.2552 -0.1485 -0.0120
21674SOL    HW165200   3.007   6.353   6.336  2.4180 -0.2770  0.4222
21674SOL    HW265201   2.962   6.457   6.454  0.0372 -0.7104 -0.0652
21675SOL     OW65202   8.810   3.154   8.608  0.2580  0.1566  0.5359
21675SOL    HW165203   8.710   3.152   8.617 -0.1321  2.6203 -1.8360
21675SOL    HW265204   8.845   3.061   8.607 -2.2317 -0.8612 -0.4435
21676SOL     OW65205   4.701   1.570   4.089 -0.1064 -0.0267 -0.0743
21676SOL    HW165206   4.745   1.533   4.007  0.3039 -1.3681  0.7072
21676SOL    HW265207   4.763   1.632   4.136 -0.7346  1.6188 -1.3080
21677SOL     OW65208   5.875   0.643   5.402 -0.1185 -0.0853 -0.0936
21677SOL    HW165209   5.793   0.587   5.391 -0.7695  1.1566 -2.1570
21677SOL    HW265210   5.951   0.601   5.352 -0.4497  0.5346 -1.1392
21678SOL     OW65211   7.811   0.556   7.119  0.1924  0.5619  0.4154
21678SOL    HW165212   7.712   0.543   7.116  0.2861 -0.5646  1.2877
21678SOL    HW265213   7.837   0.632   7.059 -0.7123 -1.7688 -3.2234
21679SOL     OW65214   4.344   5.597   3.396  0.2321  0.2744 -0.0997
21679SOL    HW165215   4.285   5.625   3.472  1.0250 -0.2520  0.7343
21679SOL    HW265216   4.371   5.501   3.409  3.3629  1.1735  0.9928
21680SOL     OW65217   8.561   5.519   8.623 -0.1293  0.1825  0.3460
21680SOL    HW165218   8.554   5.434   8.676 -1.1049  0.3708  0.5416
21680SOL    HW265219   8.656   5.549   8.621  0.5169 -1.7533 -1.0490
21681SOL     OW65220   0.843   3.995   0.987 -0.1600 -0.2439 -0.3274
21681SOL    HW165221   0.830   3.967   1.082 -1.3591 -0.0053 -0.4008
21681SOL    HW265222   0.890   4.083   0.984 -0.1576 -0.2333  0.0407
21682SOL     OW65223   8.406   7.261   1.763  0.1724 -0.2806  0.2614
21682SOL    HW165224   8.501   7.250   1.792 -0.0064 -0.4239  0.8002
21682SOL    HW265225   8.354   7.305   1.836  0.0093  0.6002 -0.3651
21683SOL     OW65226   4.933   3.675   2.527 -0.3244 -0.7719 -0.2790
21683SOL    HW165227   4.854   3.737   2.524 -0.5149 -0.9953  0.0573
21683SOL    HW265228   5.016   3.727   2.547 -0.5064 -0.6505  0.1577
21684SOL     OW65229   7.242   4.399   3.760 -0.2567  0.0522 -0.0223
21684SOL    HW165230   7.198   4.313   3.735 -0.6236  0.0886  0.4964
21684SOL    HW265231   7.333   4.403   3.719  0.6657 -1.5429  1.7282
21685SOL     OW65232   6.944   5.640   6.130  0.8803 -0.0455  0.1518
21685SOL    HW165233   7.022   5.582   6.152  0.2575 -0.3942  1.5472
21685SOL    HW265234   6.888   5.654   6.212  0.3070  1.4671 -0.4500
21686SOL     OW65235   1.972   8.103   6.405  0.5629  0.4146  0.3488
21686SOL    HW165236   1.886   8.112   6.354  0.7888  2.0783  0.2129
21686SOL    HW265237   2.047   8.140   6.350  0.9082  1.6377  1.5925
21687SOL     OW65238   2.744   6.833   5.831  0.4977  0.1717 -0.3561
21687SOL    HW165239   2.649   6.850   5.807  1.1247  1.0102 -2.4347
21687SOL    HW265240   2.763   6.735   5.827 -0.8862 -0.3683  2.8163
21688SOL     OW65241   5.464   8.338   4.519 -0.4734  0.3273 -0.0682
21688SOL    HW165242   5.560   8.325   4.543 -0.1773  0.1539 -1.2835
21688SOL    HW265243   5.415   8.251   4.531 -0.0122 -0.1445 -1.4483
21689SOL     OW65244   3.399   2.612   2.237 -0.7908  0.2932 -0.5355
21689SOL    HW165245   3.461   2.670   2.290 -0.5867  0.0578 -0.5121
21689SOL    HW265246   3.305   2.628   2.267 -0.4635 -2.2689  2.3765
21690SOL     OW65247   7.085   0.712   0.452  0.4426 -0.2166  0.7487
21690SOL    HW165248   7.034   0.639   0.498  0.3689 -0.4949  0.2249
21690SOL    HW265249   7.126   0.771   0.521 -2.2831  1.2445  1.2734
21691SOL     OW65250   6.490   0.743   5.865  0.1936 -0.1205  0.4742
21691SOL    HW165251   6.391   0.741   5.878  0.1106 -1.3658 -0.1270
21691SOL    HW265252   6.536   0.740   5.954 -0.3022  0.4363  0.7540
21692SOL     OW65253   4.957   4.238   1.378  0.2570 -0.0470 -0.0074
21692SOL    HW165254   5.003   4.277   1.299 -2.2800 -0.7323 -1.9731
21692SOL    HW265255   4.888   4.303   1.412  1.2871  0.2246  1.6815
21693SOL     OW65256   5.349   1.476   0.646 -0.0320  0.2232  0.0811
21693SOL    HW165257   5.356   1.562   0.596 -0.2787  0.2483  0.0883
21693SOL    HW265258   5.334   1.401   0.582  2.2030 -0.1101 -0.1269
21694SOL     OW65259   8.189   4.075   4.594 -0.2690 -0.3000 -0.2604
21694SOL    HW165260   8.174   4.031   4.505 -1.2677  2.4066 -1.5333
21694SOL    HW265261   8.279   4.118   4.595  0.0253 -0.8959  0.3599
21695SOL     OW65262   8.003   2.295   7.316  0.3161  0.1292  0.0215
21695SOL    HW165263   7.928   2.330   7.260 -0.2938 -0.1772  0.6369
21695SOL    HW265264   8.074   2.365   7.325  0.9811 -0.2033 -2.0872
21696SOL     OW65265   3.261   4.809   3.774 -0.1253  0.1800  0.2662
21696SOL    HW165266   3.284   4.906   3.776 -4.3102  1.3894 -0.9799
21696SOL    HW265267   3.213   4.784   3.858 -2.2363  0.2218 -0.8619
21697SOL     OW65268   1.832   5.424   0.044  0.3036 -0.2532 -0.2969
21697SOL    HW165269   1.766   5.438  -0.029  0.9624 -1.1321 -1.0890
21697SOL    HW265270   1.798   5.465   0.128 -0.5522  0.6228 -1.0447
21698SOL     OW65271   1.160   6.253   8.590 -0.6655 -0.3307  0.5588
21698SOL    HW165272   1.127   6.169   8.549  0.8813 -0.8552  0.3314
21698SOL    HW265273   1.183   6.320   8.519  0.3539 -0.6030  0.6108
21699SOL     OW65274   5.524   7.952   3.157  0.0458  0.2965 -0.0881
21699SOL    HW165275   5.464   7.878   3.187  1.9279 -0.6944  1.4700
21699SOL    HW265276   5.540   7.943   3.058  0.1777 -1.3800  0.0492
21700SOL     OW65277   7.102   8.781   3.242  0.8950 -0.3551  0.8615
21700SOL    HW165278   7.126   8.876   3.225 -1.3323  0.1331  0.0995
21700SOL    HW265279   7.058   8.774   3.332 -0.9635 -0.1962  0.0208
21701SOL     OW65280   5.107   6.558   1.410  0.0882  0.2925 -0.5959
21701SOL    HW165281   5.040   6.581   1.481 -0.9219 -0.1763 -1.3730
21701SOL    HW265282   5.071   6.583   1.321  0.7058 -0.4974 -1.0802
21702SOL     OW65283   2.022   3.040   3.946 -0.1890 -0.6689 -0.9158
21702SOL    HW165284   2.009   2.982   4.027  1.5644 -0.2794 -0.3055
21702SOL    HW265285   1.988   2.992   3.865 -0.6205 -1.6912 -0.1504
21703SOL     OW65286   6.540   2.490   0.684  0.1439 -0.1728  0.6705
21703SOL    HW165287   6.625   2.459   0.726 -0.5758 -2.1271  0.7806
21703SOL    HW265288   6.559   2.527   0.593  0.7837 -4.5025 -1.1846
21704SOL     OW65289   2.936   3.665   5.664 -0.0575  0.1945  0.1068
21704SOL    HW165290   2.864   3.733   5.652 -0.8121 -0.5092  0.5896
21704SOL    HW265291   3.022   3.711   5.684 -0.0802  1.1131 -1.6728
21705SOL     OW65292   6.114   5.023   1.341 -0.0172 -0.1280 -0.6443
21705SOL    HW165293   6.128   5.070   1.254 -1.0577  0.3027 -0.5960
21705SOL    HW265294   6.073   4.933   1.325 -1.6310  0.5571 -0.5460
21706SOL     OW65295   4.089   8.184   4.415 -0.3151 -0.2597 -0.7285
21706SOL    HW165296   4.098   8.107   4.478  2.2732 -0.1347 -0.8411
21706SOL    HW265297   4.177   8.230   4.406 -0.9494  0.5944 -3.3544
21707SOL     OW65298   4.217   0.612   2.782  0.3295  0.1831 -0.7124
21707SOL    HW165299   4.295   0.626   2.843  0.3432 -0.3285 -0.6091
21707SOL    HW265300   4.157   0.691   2.786  1.7040  1.3759 -2.0805
21708SOL     OW65301   1.838   0.722   1.769 -0.3368 -0.5268  0.3713
21708SOL    HW165302   1.834   0.676   1.858 -2.0207 -0.2465  0.4702
21708SOL    HW265303   1.750   0.765   1.750 -1.3871 -3.6578 -3.0459
21709SOL     OW65304   6.198   3.698   2.079 -0.0370 -0.6714  0.0620
21709SOL    HW165305   6.296   3.718   2.087 -0.2544 -0.4540  3.0197
21709SOL    HW265306   6.185   3.607   2.040  1.3589 -1.0016  0.3403
21710SOL     OW65307   0.801   7.050   3.514  0.0750  0.0338  0.4475
21710SOL    HW165308   0.711   7.046   3.471  0.8260 -2.2694 -1.0947
21710SOL    HW265309   0.792   7.036   3.612 -1.3103  0.8055  0.4512
21711SOL     OW65310   3.851   0.712   8.600  0.3793 -1.2155  0.4442
21711SOL    HW165311   3.783   0.766   8.650  1.4978 -0.2488  0.9668
21711SOL    HW265312   3.863   0.750   8.508  0.0920 -1.4999  0.2864
21712SOL     OW65313   6.012   5.713   3.821  0.3000  0.8950 -0.2341
21712SOL    HW165314   5.921   5.685   3.851  1.5489  0.2856  3.5304
21712SOL    HW265315   6.006   5.798   3.770 -2.4038  0.5293 -0.6379
21713SOL     OW65316   5.653   4.870   2.840 -0.5819  0.7142  0.8999
21713SOL    HW165317   5.575   4.891   2.782 -0.8326  0.3123  1.0917
21713SOL    HW265318   5.734   4.854   2.783 -0.9794 -0.3590  0.6212
21714SOL     OW65319   0.466   7.817   4.160 -0.7359 -0.1321 -0.2052
21714SOL    HW165320   0.511   7.901   4.130 -0.6186  0.0773  0.5375
21714SOL    HW265321   0.372   7.815   4.125 -0.3684 -0.2649 -1.2154
21715SOL     OW65322   0.882   3.728   2.182  0.0758  0.2758  0.3861
21715SOL    HW165323   0.811   3.723   2.252 -1.0758 -0.7481 -0.7955
21715SOL    HW265324   0.933   3.642   2.180 -2.1344 -1.1511 -2.1819
21716SOL     OW65325   7.087   1.570   0.701 -0.1326 -0.0841  0.0725
21716SOL    HW165326   7.080   1.482   0.654 -1.1478  0.9695 -1.8967
21716SOL    HW265327   7.003   1.586   0.754  0.4035 -0.6375  1.1145
21717SOL     OW65328   7.415   4.701   5.650  0.5276  0.4615  0.2873
21717SOL    HW165329   7.433   4.630   5.581 -0.6507 -0.0635  0.5027
21717SOL    HW265330   7.486   4.771   5.643  1.2444 -0.2975 -0.5011
21718SOL     OW65331   6.611   2.489   6.280 -0.7874  0.0316 -0.8325
21718SOL    HW165332   6.582   2.455   6.190 -0.1989 -1.1436 -0.5978
21718SOL    HW265333   6.588   2.421   6.350  1.8625 -0.6861 -0.5472
21719SOL     OW65334   3.445   7.890   4.207  0.0220  0.1705  0.8701
21719SOL    HW165335   3.375   7.831   4.167 -0.6953  1.4508  0.1748
21719SOL    HW265336   3.527   7.836   4.226 -0.7923 -1.1505  0.7625
21720SOL     OW65337   4.360   4.030   6.949 -0.0471  0.1389  0.3356
21720SOL    HW165338   4.443   3.988   6.985  1.6364  1.9306 -1.2803
21720SOL    HW265339   4.302   4.060   7.025  1.6021  0.4414  1.5246
21721SOL     OW65340   7.702   0.830   3.286 -0.4043  0.1735  0.0295
21721SOL    HW165341   7.605   0.827   3.307 -0.7758  2.4424 -1.0941
21721SOL    HW265342   7.754   0.853   3.369 -0.8725 -0.3079  0.4619
21722SOL     OW65343   7.032   7.297   0.062 -0.9701  0.0263  0.0979
21722SOL    HW165344   7.004   7.290  -0.034 -1.0096  1.2600  0.0137
21722SOL    HW265345   6.967   7.352   0.113 -1.1509 -0.9307  0.9395
21723SOL     OW65346   8.703   0.345   1.121  0.2540 -0.2895  0.2078
21723SOL    HW165347   8.696   0.257   1.074  2.5679 -0.8696  0.8295
21723SOL    HW265348   8.611   0.375   1.149 -0.7847 -1.5857 -1.5970
21724SOL     OW65349   2.563   2.306   6.617 -0.3675  0.3096  0.1910
21724SOL    HW165350   2.549   2.213   6.651  0.5958  0.6621  1.7032
21724SOL    HW265351   2.475   2.353   6.613 -0.8837 -0.6911 -0.7123
21725SOL     OW65352   7.274   1.285   6.874  0.1767  0.4162  0.3232
21725SOL    HW165353   7.366   1.292   6.912  0.6063 -0.0930 -0.5746
21725SOL    HW265354   7.278   1.297   6.774 -0.8846  1.5196  0.3913
21726SOL     OW65355   7.297   4.457   1.139  0.0192  0.2365 -0.3607
21726SOL    HW165356   7.199   4.455   1.162 -0.3276 -0.1759 -1.7997
21726SOL    HW265357   7.347   4.404   1.207 -0.7449  0.4928  0.4294
21727SOL     OW65358   6.582   2.111   5.020 -0.4308 -0.2585  0.3931
21727SOL    HW165359   6.497   2.161   5.035 -1.9294 -2.6939  0.5447
21727SOL    HW265360   6.565   2.036   4.955  0.8181 -2.6302  2.6450
21728SOL     OW65361   1.449   0.514   2.665  0.0202 -0.0792  0.1453
21728SOL    HW165362   1.428   0.457   2.585  0.5058  1.2251 -0.9551
21728SOL    HW265363   1.481   0.603   2.634  0.5856  0.3270  1.8245
21729SOL     OW65364   3.474   3.754   8.013  0.7943  0.1355  0.0816
21729SOL    HW165365   3.539   3.682   8.034  0.9934  0.1037 -0.6038
21729SOL    HW265366   3.393   3.715   7.969  0.9942  0.3473 -0.4837
21730SOL     OW65367   0.341   2.760   4.825  0.5786  0.2966  0.0718
21730SOL    HW165368   0.347   2.667   4.860 -0.5308  0.2155  0.0841
21730SOL    HW265369   0.372   2.762   4.730 -0.1056 -0.2386 -0.1717
21731SOL     OW65370   2.279   4.999   0.568  0.3026  0.2044  0.4580
21731SOL    HW165371   2.237   4.966   0.483 -0.1156  1.8301 -0.0100
21731SOL    HW265372   2.229   4.962   0.646 -0.4194  0.0900 -0.0479
21732SOL     OW65373   6.641   5.991   4.651 -0.2790 -0.5938  0.0434
21732SOL    HW165374   6.663   5.894   4.637 -1.9028 -0.8353 -1.0530
21732SOL    HW265375   6.612   6.032   4.565 -1.5589  0.3501  0.8811
21733SOL     OW65376   6.360   3.065   5.271  0.3504 -0.7384 -0.2270
21733SOL    HW165377   6.299   3.007   5.217 -0.9036 -1.6788  2.0508
21733SOL    HW265378   6.314   3.152   5.292  0.6538 -0.5566 -0.3102
21734SOL     OW65379   8.182   8.077   3.365 -0.6257 -0.4239  0.1233
21734SOL    HW165380   8.271   8.120   3.355 -1.2477  0.9637  0.3661
21734SOL    HW265381   8.178   8.028   3.452 -0.3117  0.0309  0.3946
21735SOL     OW65382   7.669   6.946   3.863 -0.4844 -0.0958  0.1499
21735SOL    HW165383   7.650   7.014   3.933  2.4689  0.0932  0.9218
21735SOL    HW265384   7.724   6.872   3.902  0.7595 -0.2877 -1.8140
21736SOL     OW65385   8.489   1.846   4.074  0.4937 -0.4375 -0.2178
21736SOL    HW165386   8.588   1.842   4.091  0.6052 -0.0334 -0.7514
21736SOL    HW265387   8.463   1.940   4.052 -0.1913 -0.3270  0.9814
21737SOL     OW65388   3.872   8.591   1.895  0.0296  0.3869 -0.1580
21737SOL    HW165389   3.794   8.531   1.880 -0.8878  1.8631 -1.7696
21737SOL    HW265390   3.843   8.686   1.882  1.3362  1.2626  2.6142
21738SOL     OW65391   0.565   0.885   6.603 -0.2879 -0.1706 -0.5548
21738SOL    HW165392   0.651   0.886   6.655 -1.2083 -0.4778  1.0353
21738SOL    HW265393   0.507   0.961   6.631 -0.6079 -0.0499 -1.5081
21739SOL     OW65394   0.487   6.218   6.894  0.4587 -0.2512 -0.1855
21739SOL    HW165395   0.392   6.236   6.918  0.1728 -0.2834 -1.2242
21739SOL    HW265396   0.535   6.178   6.972 -0.2497  0.2232  0.5005
21740SOL     OW65397   0.491   8.861   6.990 -0.6263  0.1674 -0.0141
21740SOL    HW165398   0.572   8.918   6.981  0.4847 -1.2544  0.4608
21740SOL    HW265399   0.472   8.846   7.087 -0.5879 -0.6547 -0.1259
21741SOL     OW65400   1.189   0.153   8.483  0.0582 -0.2333 -0.1172
21741SOL    HW165401   1.106   0.209   8.485  0.0834 -0.1569 -0.9612
21741SOL    HW265402   1.237   0.167   8.397  1.6535  0.6999  0.8907
21742SOL     OW65403   3.479   4.728   0.705 -0.4677  0.2120 -0.0457
21742SOL    HW165404   3.380   4.731   0.719 -0.3970 -1.7222  1.2368
21742SOL    HW265405   3.502   4.657   0.638  0.0147  1.3948 -1.1793
21743SOL     OW65406   5.377   5.335   0.339 -0.1447  0.3833 -0.3151
21743SOL    HW165407   5.294   5.308   0.386 -0.6198 -1.1363 -1.9112
21743SOL    HW265408   5.355   5.397   0.263  0.3375  1.0048  0.0416
21744SOL     OW65409   6.034   7.564   7.540  0.2512  0.2848 -0.4231
21744SOL    HW165410   6.001   7.469   7.542  0.7613  0.1101  1.3101
21744SOL    HW265411   6.123   7.567   7.494  0.6399 -0.2478  0.2622
21745SOL     OW65412   7.290   6.306   8.578 -0.1702  0.1807 -0.3569
21745SOL    HW165413   7.256   6.397   8.603  2.3232  1.0004  0.3997
21745SOL    HW265414   7.258   6.239   8.646 -0.2877  0.9045  0.3194
21746SOL     OW65415   6.282   0.386   6.833  0.0842 -0.6098  0.1141
21746SOL    HW165416   6.303   0.417   6.740 -0.8672  0.3668  0.2080
21746SOL    HW265417   6.361   0.405   6.892  1.0585 -2.0670 -0.6454
21747SOL     OW65418   6.676   6.564   7.929  0.0033 -0.2436  0.3612
21747SOL    HW165419   6.749   6.622   7.967  0.3030 -1.7657  2.2595
21747SOL    HW265420   6.589   6.588   7.972  0.1430 -1.2063  1.2212
21748SOL     OW65421   6.639   2.236   4.035 -0.0992 -0.1167 -0.0805
21748SOL    HW165422   6.649   2.314   4.096 -0.3894 -1.5652  1.9273
21748SOL    HW265423   6.719   2.229   3.976  0.8695  0.5278  1.1208
21749SOL     OW65424   1.104   4.376   7.496 -0.0526 -0.2967 -0.1269
21749SOL    HW165425   1.187   4.409   7.452  0.9920 -2.0207  0.4437
21749SOL    HW265426   1.127   4.333   7.583 -1.9717  2.4163  1.9157
21750SOL     OW65427   7.515   5.420   2.042 -0.6921 -0.6365 -0.9730
21750SOL    HW165428   7.429   5.467   2.063 -0.8020 -0.8291 -0.9862
21750SOL    HW265429   7.556   5.386   2.127 -0.4145 -0.1776 -0.9221
21751SOL     OW65430   6.786   3.799   3.224  0.0213  0.1819  0.5228
21751SOL    HW165431   6.766   3.708   3.260  0.0666 -0.7129 -1.6065
21751SOL    HW265432   6.702   3.839   3.186  0.3690  0.2620 -0.1698
21752SOL     OW65433   2.613   0.528   5.164 -0.0018  0.0165  0.2027
21752SOL    HW165434   2.558   0.612   5.166  1.1180  0.8399 -1.4541
21752SOL    HW265435   2.642   0.506   5.257 -2.8620 -0.3253  1.1026
21753SOL     OW65436   6.345   2.933   5.912  0.1712 -0.5107 -0.0656
21753SOL    HW165437   6.360   2.911   5.816 -0.9046 -0.5416 -0.2394
21753SOL    HW265438   6.320   2.851   5.962 -0.5087 -0.2854 -0.0226
21754SOL     OW65439   4.214   2.728   7.698  0.7592 -0.0392 -0.2808
21754SOL    HW165440   4.126   2.715   7.742 -0.1336 -0.9385 -2.1956
21754SOL    HW265441   4.288   2.712   7.764 -0.4785 -1.7400  0.7685
21755SOL     OW65442   5.821   0.298   3.128 -0.3425  0.0440  0.1359
21755SOL    HW165443   5.919   0.275   3.130  0.6694  3.6686  0.8559
21755SOL    HW265444   5.788   0.297   3.034  0.2820 -1.4218 -0.0970
21756SOL     OW65445   0.784   7.046   3.791  0.1701 -0.3069  0.3018
21756SOL    HW165446   0.760   7.137   3.826  2.5929  0.3941  0.3193
21756SOL    HW265447   0.792   6.981   3.866 -0.4186 -0.2516  0.4133
21757SOL     OW65448   1.075   4.333   6.620  0.1468  0.3418  0.1820
21757SOL    HW165449   1.075   4.264   6.693  2.7125 -0.4779 -0.4860
21757SOL    HW265450   1.167   4.340   6.580 -0.2696  3.3996 -0.5363
21758SOL     OW65451   8.698   4.221   3.994  0.5460 -0.0292  0.1022
21758SOL    HW165452   8.779   4.169   4.020  1.8085  1.5462 -0.5911
21758SOL    HW265453   8.721   4.288   3.924 -1.1341  1.1399  0.5957
21759SOL     OW65454   1.630   4.096   3.658  0.1623 -0.3065 -0.5386
21759SOL    HW165455   1.530   4.103   3.662  0.0480 -1.8057 -0.1339
21759SOL    HW265456   1.655   4.027   3.591  0.9333  0.0774 -0.6481
21760SOL     OW65457   3.066   5.663   2.399  0.3112  0.1960 -1.0893
21760SOL    HW165458   2.983   5.610   2.381  0.7802 -0.7838 -0.4795
21760SOL    HW265459   3.143   5.620   2.353  1.0138 -0.7055  0.7921
21761SOL     OW65460   3.926   3.398   5.412  0.1490  0.1313  0.0034
21761SOL    HW165461   3.935   3.476   5.473  0.6916  0.2602 -0.2319
21761SOL    HW265462   3.955   3.424   5.320  2.8538 -1.0041  0.4282
21762SOL     OW65463   5.204   5.513   8.348 -0.2988 -0.0527 -0.4140
21762SOL    HW165464   5.269   5.590   8.344 -1.3869  0.9116 -0.0290
21762SOL    HW265465   5.134   5.526   8.278 -0.8256 -0.3860  0.0478
21763SOL     OW65466   7.581   8.170   8.648 -0.7260  0.5033  0.1780
21763SOL    HW165467   7.525   8.140   8.725 -1.0214  0.8240  0.0940
21763SOL    HW265468   7.558   8.116   8.566 -2.5950  2.1154 -0.4536
21764SOL     OW65469   8.355   2.724   0.351 -0.9165  0.0073 -0.4172
21764SOL    HW165470   8.354   2.818   0.318  0.8761 -0.0527 -0.7431
21764SOL    HW265471   8.349   2.661   0.273 -1.7981 -0.1753 -0.2208
21765SOL     OW65472   4.305   0.303   2.024  0.3186  0.1372  0.6221
21765SOL    HW165473   4.231   0.267   2.081 -0.0254 -0.0389  0.0740
21765SOL    HW265474   4.389   0.252   2.042  0.2916  0.2753  1.1776
21766SOL     OW65475   7.002   4.827   1.127  0.2440  0.0962 -0.2704
21766SOL    HW165476   6.956   4.910   1.097 -0.0716  0.0628  0.1066
21766SOL    HW265477   6.936   4.768   1.174  0.8889  0.5391  1.2821
21767SOL     OW65478   4.487   8.298   8.776 -0.0878  0.2933 -0.6373
21767SOL    HW165479   4.558   8.269   8.712  3.6770 -0.5017  3.4440
21767SOL    HW265480   4.434   8.218   8.805  0.4931  0.0716 -0.1946
21768SOL     OW65481   8.232   2.989   6.142 -0.1664  0.0489  0.8723
21768SOL    HW165482   8.250   3.028   6.233  1.0526  0.9135  0.2891
21768SOL    HW265483   8.249   2.890   6.144 -0.6982 -0.0330  1.7174
21769SOL     OW65484   0.854   2.870   4.528  0.6311 -0.2957 -0.2741
21769SOL    HW165485   0.849   2.771   4.542 -2.4377  0.0158  1.8422
21769SOL    HW265486   0.820   2.917   4.609  1.4147  2.5513 -1.4510
21770SOL     OW65487   2.108   6.973   0.688 -0.1067  0.3322 -0.5548
21770SOL    HW165488   2.066   7.063   0.696  1.4592  1.1016 -0.7466
21770SOL    HW265489   2.158   6.951   0.772  0.3833  0.1008 -0.8970
21771SOL     OW65490   4.471   5.194   7.113 -0.2182  0.6518  0.2633
21771SOL    HW165491   4.541   5.173   7.045 -1.1870 -0.5928 -0.4087
21771SOL    HW265492   4.497   5.275   7.165  1.6508  0.2880 -0.0396
21772SOL     OW65493   1.835   7.447   3.730  0.0251  0.2757 -0.4741
21772SOL    HW165494   1.772   7.376   3.698  1.7763 -0.9189 -1.4509
21772SOL    HW265495   1.819   7.532   3.678 -0.5820 -0.0891 -0.8931
21773SOL     OW65496   6.756   5.261   1.864  0.2910 -0.4461  0.2771
21773SOL    HW165497   6.823   5.242   1.936  0.2480  1.7095  0.9490
21773SOL    HW265498   6.757   5.358   1.842 -0.8210 -0.7967 -1.5626
21774SOL     OW65499   0.730   6.237   5.512  0.2212 -0.3480  0.0736
21774SOL    HW165500   0.658   6.227   5.443 -0.8848  1.1335  0.9345
21774SOL    HW265501   0.777   6.324   5.499 -1.6159  1.1682  2.4791
21775SOL     OW65502   8.670   4.057   3.063  0.0209  0.4798  0.2722
21775SOL    HW165503   8.589   4.000   3.056  1.1280 -1.3117  1.3457
21775SOL    HW265504   8.644   4.146   3.102 -1.7205  0.7706 -1.3888
21776SOL     OW65505   6.512   3.147   5.567 -0.0308 -0.1394 -0.3009
21776SOL    HW165506   6.578   3.071   5.560  0.6704  0.4681 -0.4165
21776SOL    HW265507   6.518   3.203   5.485 -1.1827 -0.4448 -0.6149
21777SOL     OW65508   7.676   3.231   1.760 -0.5697  0.0390  0.6860
21777SOL    HW165509   7.760   3.245   1.812  0.8887  0.3092 -1.6274
21777SOL    HW265510   7.610   3.181   1.817  1.2778 -0.5691  2.4284
21778SOL     OW65511   2.593   7.371   0.537  0.1188 -0.2735  0.3596
21778SOL    HW165512   2.645   7.415   0.609  0.0794 -1.2007  0.9759
21778SOL    HW265513   2.602   7.423   0.452 -0.4604  1.2574  1.2008
21779SOL     OW65514   1.332   7.288   0.150 -0.1821  0.1382 -0.1629
21779SOL    HW165515   1.244   7.242   0.135 -1.9302  2.4086  2.2272
21779SOL    HW265516   1.363   7.272   0.244  1.6973 -0.1242 -0.7825
21780SOL     OW65517   1.717   5.901   7.373  0.0027  0.0109 -0.0661
21780SOL    HW165518   1.748   5.996   7.374  1.6075 -0.4354  2.8122
21780SOL    HW265519   1.785   5.844   7.328 -1.3272  0.1942 -2.5412
21781SOL     OW65520   0.066   8.819   8.687 -0.3314 -0.2502  0.2824
21781SOL    HW165521   0.074   8.851   8.782  0.8483 -0.4634  0.2673
21781SOL    HW265522   0.116   8.733   8.677  0.8698  0.5555 -0.8912
21782SOL     OW65523   1.904   8.536   8.469 -0.0350  0.3712  0.7758
21782SOL    HW165524   1.872   8.541   8.374  1.4512  1.0304  0.2918
21782SOL    HW265525   1.876   8.448   8.508 -1.5852  0.5193  0.0967
21783SOL     OW65526   5.547   3.257   8.402  0.0791 -0.1719  0.0075
21783SOL    HW165527   5.492   3.254   8.485  0.0946  0.3641  0.0442
21783SOL    HW265528   5.637   3.217   8.419  0.3144  0.5117  0.4396
21784SOL     OW65529   6.267   0.786   4.141  0.5836 -0.2716  0.0868
21784SOL    HW165530   6.229   0.710   4.193 -0.3959 -0.4400 -0.8425
21784SOL    HW265531   6.313   0.750   4.059  1.2284  0.0627  0.2905
21785SOL     OW65532   1.895   5.060   2.547  0.7112 -0.0342  0.0922
21785SOL    HW165533   1.943   5.087   2.464  2.1126  0.0614  0.8977
21785SOL    HW265534   1.843   5.137   2.583  0.2274 -0.0331 -0.5973
21786SOL     OW65535   5.993   4.523   3.324  0.6925  0.3778 -0.1169
21786SOL    HW165536   6.060   4.481   3.385  0.6147  0.4496  0.0192
21786SOL    HW265537   6.022   4.511   3.229  0.5408 -0.2105 -0.0936
21787SOL     OW65538   0.854   8.365   7.548  0.3130 -0.5869 -0.0279
21787SOL    HW165539   0.911   8.435   7.593  1.1921 -0.5152 -1.2014
21787SOL    HW265540   0.888   8.350   7.455 -0.5229 -1.8344 -0.1450
21788SOL     OW65541   0.758   8.089   6.876  0.2712  0.0752  0.0471
21788SOL    HW165542   0.799   8.021   6.815  1.2892 -0.3159  1.1192
21788SOL    HW265543   0.697   8.042   6.940  1.6491  0.0146  1.3575
21789SOL     OW65544   1.531   7.642   4.299  0.2815 -0.0590  0.3718
21789SOL    HW165545   1.507   7.649   4.396  1.9666 -0.8403  0.8727
21789SOL    HW265546   1.614   7.694   4.281  0.0057  0.0476 -0.6561
21790SOL     OW65547   0.794   0.040   7.825  0.0202 -0.2326 -0.0220
21790SOL    HW165548   0.713   0.088   7.858 -1.4227 -0.4063 -3.0063
21790SOL    HW265549   0.814   0.069   7.732  2.6354 -1.2045  0.1666
21791SOL     OW65550   1.613   7.327   3.654 -0.0656  0.1256 -0.3564
21791SOL    HW165551   1.557   7.280   3.723  0.5275 -0.2066 -0.0899
21791SOL    HW265552   1.577   7.308   3.563  0.8188 -1.7901 -0.3457
21792SOL     OW65553   8.518   3.234   4.059 -0.4924  0.0877 -0.0005
21792SOL    HW165554   8.444   3.271   4.115 -1.4837  1.2577 -1.9845
21792SOL    HW265555   8.588   3.304   4.046  0.0237 -0.3760  0.2729
21793SOL     OW65556   7.078   0.695   7.631 -0.5165 -0.3661  0.3128
21793SOL    HW165557   7.177   0.680   7.640 -0.3526  0.7260  0.4266
21793SOL    HW265558   7.061   0.786   7.594 -1.4482 -1.1000 -1.1886
21794SOL     OW65559   6.453   8.794   8.383  0.0889  0.1298  0.1149
21794SOL    HW165560   6.475   8.816   8.288 -3.2549 -2.0106 -1.3555
21794SOL    HW265561   6.400   8.868   8.423  1.1866  0.8752  0.2280
21795SOL     OW65562   6.474   1.681   6.231  0.0680 -0.9508 -0.4511
21795SOL    HW165563   6.395   1.734   6.201 -0.8292  0.5558  3.8758
21795SOL    HW265564   6.444   1.590   6.259  0.2111 -1.0429 -0.5951
21796SOL     OW65565   3.078   4.769   5.327  0.4270  0.6907  0.2419
21796SOL    HW165566   2.985   4.778   5.363  0.2522 -0.1367  0.0095
21796SOL    HW265567   3.086   4.682   5.278  1.3097  0.7840  0.2209
21797SOL     OW65568   1.860   7.616   5.234  0.0918  0.5064 -0.1157
21797SOL    HW165569   1.946   7.569   5.255 -0.7400 -0.9730  0.1058
21797SOL    HW265570   1.785   7.550   5.231 -0.8922  1.6109 -1.3309
21798SOL     OW65571   4.862   3.881   6.701 -0.1381  0.2919  0.0014
21798SOL    HW165572   4.949   3.927   6.685  0.5275 -0.8008  0.3576
21798SOL    HW265573   4.878   3.793   6.747 -1.6168  1.3615  2.8713
21799SOL     OW65574   6.836   0.172   7.781  0.5612  0.4288  0.0467
21799SOL    HW165575   6.775   0.225   7.721  0.0503  0.2944  0.4369
21799SOL    HW265576   6.856   0.084   7.739  1.2695  0.8556 -0.5250
21800SOL     OW65577   4.923   7.921   8.067  0.7168 -0.5595  0.2993
21800SOL    HW165578   4.977   7.998   8.101  0.7654  0.4534 -1.8572
21800SOL    HW265579   4.830   7.927   8.102  0.1901  1.6250 -1.2148
21801SOL     OW65580   3.933   4.164   6.177  0.3835 -0.7878 -0.2597
21801SOL    HW165581   3.907   4.258   6.156  0.4427 -1.1440 -2.0844
21801SOL    HW265582   3.870   4.127   6.246  0.9474  0.8579  1.2223
21802SOL     OW65583   4.093   0.961   8.407  0.4102  0.0744  0.4658
21802SOL    HW165584   4.178   0.931   8.450  0.2907  0.0400  0.6799
21802SOL    HW265585   4.110   0.981   8.311  0.7288  0.3751  0.5818
21803SOL     OW65586   7.391   4.997   7.519  0.2064  0.1699  0.1606
21803SOL    HW165587   7.407   5.055   7.599 -0.6015  0.8053 -0.1209
21803SOL    HW265588   7.446   4.914   7.527  0.8785  0.6617  0.8996
21804SOL     OW65589   0.918   3.522   3.293  0.3086 -0.3213  0.3317
21804SOL    HW165590   0.865   3.568   3.364  0.4748  0.9473 -0.3291
21804SOL    HW265591   1.005   3.490   3.331  0.7454  1.0512  0.5436
21805SOL     OW65592   6.479   7.542   5.138 -0.2841  0.2442 -0.0361
21805SOL    HW165593   6.500   7.469   5.073  1.8095  1.7569 -1.1773
21805SOL    HW265594   6.512   7.629   5.102 -0.5140  1.3981  2.3525
21806SOL     OW65595   1.875   5.919   4.849 -0.1253 -0.1612  0.1483
21806SOL    HW165596   1.914   6.010   4.837  1.9723 -1.0855 -0.5990
21806SOL    HW265597   1.898   5.862   4.769  0.3262 -1.8947  1.4495
21807SOL     OW65598   5.289   0.730   6.719  0.5258 -0.4391 -0.1859
21807SOL    HW165599   5.313   0.640   6.682  1.7494 -0.6590  1.0223
21807SOL    HW265600   5.320   0.801   6.657  0.1246 -0.8262 -0.8462
21808SOL     OW65601   5.864   6.236   6.811 -0.5148 -0.2687 -0.0094
21808SOL    HW165602   5.826   6.319   6.852  0.1162 -0.8764  1.9180
21808SOL    HW265603   5.905   6.258   6.722  2.2594  2.1531  1.6813
21809SOL     OW65604   3.966   5.642   7.849  0.2702  0.4134  0.1802
21809SOL    HW165605   3.927   5.557   7.814 -0.6484  0.6799  0.5097
21809SOL    HW265606   3.914   5.672   7.930  1.3932  0.6063  0.8533
21810SOL     OW65607   8.649   8.619   0.527 -0.1921 -0.3600  0.0120
21810SOL    HW165608   8.737   8.573   0.540  0.9521  1.7053  0.0745
21810SOL    HW265609   8.635   8.638   0.430 -0.0310  0.3077  0.1176
21811SOL     OW65610   7.655   3.072   2.788 -0.1696  0.0830  0.2177
21811SOL    HW165611   7.651   2.986   2.838  1.5615 -0.0364  0.2132
21811SOL    HW265612   7.736   3.123   2.817 -0.5200  1.1637 -0.6555
21812SOL     OW65613   7.868   1.674   6.645 -0.6350  0.1873 -0.2454
21812SOL    HW165614   7.791   1.705   6.589 -2.2699 -1.8136  0.7206
21812SOL    HW265615   7.833   1.642   6.733  1.4530  0.0665  0.5821
21813SOL     OW65616   4.780   0.075   5.246  0.3123  0.7037 -0.0284
21813SOL    HW165617   4.683   0.101   5.244  0.3144  0.6415 -2.0877
21813SOL    HW265618   4.835   0.149   5.208  0.6875 -0.7197 -2.3908
21814SOL     OW65619   7.011   1.056   5.832  0.7971 -0.4043 -0.2064
21814SOL    HW165620   7.007   0.960   5.858  0.2062  0.2664  2.5112
21814SOL    HW265621   7.105   1.080   5.807  1.5093 -1.1338  1.5953
21815SOL     OW65622   4.248   8.568   4.518  0.2648  0.3788  0.2564
21815SOL    HW165623   4.171   8.516   4.552  0.7898  0.8041  2.1848
21815SOL    HW265624   4.325   8.507   4.500 -0.3109  0.0269 -1.1817
21816SOL     OW65625   4.659   3.319   7.593  0.6681  0.6277 -0.7186
21816SOL    HW165626   4.621   3.270   7.671  0.4337  0.0891 -1.1584
21816SOL    HW265627   4.756   3.338   7.609  0.4175  1.2951  0.0671
21817SOL     OW65628   8.671   6.762   1.431 -0.4458  0.8735 -0.3473
21817SOL    HW165629   8.754   6.749   1.376  1.0096  0.0581  1.9090
21817SOL    HW265630   8.678   6.848   1.481 -0.3153  0.1687  0.8743
21818SOL     OW65631   4.356   2.294   6.005  0.3693 -0.2149 -0.2038
21818SOL    HW165632   4.431   2.251   6.055 -1.1400 -1.0106  1.4801
21818SOL    HW265633   4.304   2.225   5.955 -0.0374  0.1306 -0.2685
21819SOL     OW65634   1.940   1.637   1.691 -0.1553  0.0903  0.1051
21819SOL    HW165635   1.976   1.585   1.769 -1.9665  0.1040  1.0096
21819SOL    HW265636   2.014   1.688   1.648  0.7627  0.8722  2.4204
21820SOL     OW65637   0.817   0.099   1.454  0.3438  0.0188  0.3414
21820SOL    HW165638   0.845   0.053   1.370  0.4599  0.5486  0.0860
21820SOL    HW265639   0.737   0.053   1.493  0.3462 -0.2821 -0.0113
21821SOL     OW65640   5.073   2.067   6.340 -0.8452 -0.2129  0.1045
21821SOL    HW165641   5.133   2.136   6.380  1.0488 -1.4908 -0.3962
21821SOL    HW265642   5.128   2.000   6.291 -2.7969 -0.8857 -1.2832
21822SOL     OW65643   4.706   8.457   1.404  0.5217  0.2316  0.0635
21822SOL    HW165644   4.758   8.383   1.448 -0.3335  0.7756  2.0728
21822SOL    HW265645   4.610   8.429   1.395 -0.0733  1.5140  1.9784
21823SOL     OW65646   8.123   0.683   3.897 -0.1539  0.0894  0.2891
21823SOL    HW165647   8.216   0.705   3.928  0.0143 -0.7345  0.3765
21823SOL    HW265648   8.125   0.602   3.839 -0.9570 -0.6376  1.2343
21824SOL     OW65649   4.482   4.737   7.940 -0.5297  0.0009  0.0567
21824SOL    HW165650   4.407   4.739   7.874  1.2279 -0.1545 -2.0557
21824SOL    HW265651   4.502   4.831   7.969  0.2605  0.3788 -1.5861
21825SOL     OW65652   8.340   5.621   4.362  0.6171  0.2075  0.6109
21825SOL    HW165653   8.241   5.634   4.368  0.5931  0.2019  0.2576
21825SOL    HW265654   8.360   5.541   4.306  0.8157  0.0025  0.9759
21826SOL     OW65655   2.548   7.628   1.056  0.0592 -0.1339 -0.4940
21826SOL    HW165656   2.502   7.705   1.101 -0.5239 -1.4307  1.2211
21826SOL    HW265657   2.647   7.638   1.067  0.0047  0.4861 -0.5142
21827SOL     OW65658   4.097   3.543   4.646 -0.3566  0.2193  0.2523
21827SOL    HW165659   4.056   3.465   4.693  0.8444 -0.2768  0.5038
21827SOL    HW265660   4.086   3.625   4.703  1.3691 -0.4359  1.6179
21828SOL     OW65661   3.787   5.701   1.101 -0.4104  0.2788 -0.5658
21828SOL    HW165662   3.713   5.722   1.164 -0.6074  2.0915 -1.3394
21828SOL    HW265663   3.793   5.602   1.089 -0.7769 -0.0658  1.7510
21829SOL     OW65664   3.426   7.433   5.216 -0.0477  0.2207  0.2326
21829SOL    HW165665   3.394   7.457   5.124  0.9545 -1.2385 -0.5367
21829SOL    HW265666   3.370   7.358   5.252  0.6664 -0.4088  0.0596
21830SOL     OW65667   0.122   6.399   3.235 -0.2988 -0.0306  0.2249
21830SOL    HW165668   0.092   6.402   3.140  0.9963 -0.2949 -0.2191
21830SOL    HW265669   0.210   6.447   3.244 -0.7819  0.6797  1.4425
21831SOL     OW65670   4.461   0.944   2.145 -0.2371  0.2026 -0.1031
21831SOL    HW165671   4.404   0.878   2.095 -1.0192  0.6648  0.1664
21831SOL    HW265672   4.478   0.909   2.237  0.2000 -0.0876 -0.2886
21832SOL     OW65673   2.121   0.423   8.303  0.5439  0.2673 -0.2631
21832SOL    HW165674   2.025   0.402   8.323  0.7843  1.2734  2.4358
21832SOL    HW265675   2.180   0.356   8.349  1.1472 -0.0396 -1.4642
21833SOL     OW65676   1.946   2.814   3.088  0.7614  0.4968  0.3015
21833SOL    HW165677   1.992   2.872   3.154 -0.2043 -0.7697  2.1666
21833SOL    HW265678   1.953   2.719   3.115  1.1763 -0.1955 -1.9867
21834SOL     OW65679   2.867   1.393   5.950 -0.2533 -0.3612 -0.7001
21834SOL    HW165680   2.851   1.430   5.859 -1.1366  0.9504 -0.0379
21834SOL    HW265681   2.831   1.455   6.019 -0.2794 -1.6729  0.5338
21835SOL     OW65682   8.180   0.392   0.327 -0.4403  0.3190 -0.8367
21835SOL    HW165683   8.128   0.357   0.404  2.5860 -0.4650  1.0234
21835SOL    HW265684   8.183   0.324   0.254  1.5976 -1.6121  0.8980
21836SOL     OW65685   6.207   3.854   6.246 -0.0909 -0.1276 -0.6178
21836SOL    HW165686   6.124   3.898   6.280  0.4268  0.4253 -0.0519
21836SOL    HW265687   6.250   3.912   6.176  0.5571  0.2441  0.0807
21837SOL     OW65688   6.731   5.707   5.020 -0.8274 -0.4048 -0.2606
21837SOL    HW165689   6.633   5.723   5.024 -0.7871 -0.2271  0.1082
21837SOL    HW265690   6.779   5.795   5.017 -0.7014 -0.4963 -1.0672
21838SOL     OW65691   5.594   5.785   5.983 -0.1803  0.1598  0.1210
21838SOL    HW165692   5.670   5.728   5.954 -0.2330  0.3925 -0.4919
21838SOL    HW265693   5.628   5.875   6.010 -0.2015  0.1530  0.1703
21839SOL     OW65694   4.861   0.271   2.780 -0.3704 -0.4007 -0.0420
21839SOL    HW165695   4.939   0.218   2.748 -0.0482  0.0068  0.0578
21839SOL    HW265696   4.892   0.345   2.840 -0.8369 -0.2799  0.0609
21840SOL     OW65697   1.792   5.887   8.754 -0.0925 -0.4331  0.2377
21840SOL    HW165698   1.719   5.822   8.732 -0.4157  0.3371 -1.0379
21840SOL    HW265699   1.846   5.850   8.829 -0.5344 -1.9837 -0.1484
21841SOL     OW65700   5.435   5.646   8.234  0.3705 -0.6716  0.1810
21841SOL    HW165701   5.499   5.718   8.260  0.5137 -0.3085 -1.1023
21841SOL    HW265702   5.483   5.558   8.231  1.8202  0.0284 -4.0247
21842SOL     OW65703   6.181   6.325   7.495  0.0856 -0.1654 -0.6783
21842SOL    HW165704   6.202   6.348   7.400 -0.8669 -0.5300 -0.9894
21842SOL    HW265705   6.198   6.227   7.510 -0.1228 -0.1842 -0.5677
21843SOL     OW65706   0.060   6.452   0.435 -0.2720  0.4289 -0.2202
21843SOL    HW165707   0.130   6.522   0.446  3.0988 -2.4880 -1.0256
21843SOL    HW265708   0.054   6.398   0.519 -0.0923 -0.4892 -0.7749
21844SOL     OW65709   8.451   1.995   4.827  0.1184  0.3949  0.4745
21844SOL    HW165710   8.366   2.004   4.877 -0.1058 -0.0015  0.1711
21844SOL    HW265711   8.473   2.081   4.782 -0.7396  0.1596 -0.4202
21845SOL     OW65712   3.638   5.847   7.440  0.3284 -0.2602  0.0093
21845SOL    HW165713   3.658   5.878   7.347  1.3047  2.7174  1.0606
21845SOL    HW265714   3.724   5.826   7.487 -0.1102 -1.1747  0.4287
21846SOL     OW65715   0.339   4.538   2.649  0.0615  0.0549  0.1164
21846SOL    HW165716   0.394   4.463   2.685  1.3196 -0.7939 -3.1670
21846SOL    HW265717   0.399   4.613   2.622 -0.5061 -0.1093 -1.7717
21847SOL     OW65718   1.671   6.303   7.629  0.1835  0.7086  0.1940
21847SOL    HW165719   1.696   6.299   7.726 -0.3487  0.3039  0.3205
21847SOL    HW265720   1.595   6.367   7.617 -2.5066 -2.1955  0.6858
21848SOL     OW65721   2.990   3.116   7.177  0.0463  0.0712 -0.0133
21848SOL    HW165722   2.979   3.061   7.260  0.2274  0.9713  0.6308
21848SOL    HW265723   2.911   3.176   7.166  0.3493  0.4606 -0.0912
21849SOL     OW65724   8.157   0.360   4.887 -0.2770 -0.2778 -0.2500
21849SOL    HW165725   8.112   0.449   4.875  1.1475  0.3194 -1.5023
21849SOL    HW265726   8.209   0.338   4.805  1.3523 -1.1530  0.9613
21850SOL     OW65727   5.695   1.944   7.740  0.2549  0.0738 -0.2486
21850SOL    HW165728   5.767   1.980   7.681 -1.0657 -0.1266 -2.0881
21850SOL    HW265729   5.734   1.880   7.806  2.0034  1.4999  0.1604
21851SOL     OW65730   1.187   8.481   7.881  0.0220  0.1767  0.0587
21851SOL    HW165731   1.164   8.402   7.825  0.3713  0.6325 -0.7442
21851SOL    HW265732   1.286   8.498   7.877 -0.0228  0.5412  0.3760
21852SOL     OW65733   5.253   3.618   3.590 -0.3732  0.1806  0.0854
21852SOL    HW165734   5.179   3.555   3.567 -0.1267  0.1936 -0.7773
21852SOL    HW265735   5.215   3.700   3.632 -0.8950  0.3680 -0.7323
21853SOL     OW65736   6.093   3.454   3.354  0.0890 -0.1469 -0.3926
21853SOL    HW165737   6.061   3.368   3.315  0.8546 -2.0082  2.7377
21853SOL    HW265738   6.038   3.477   3.434  0.8587  1.4831 -0.2990
21854SOL     OW65739   2.836   6.755   4.935 -0.1595  0.2109 -0.1509
21854SOL    HW165740   2.837   6.691   5.012  1.7682  0.3895  0.0288
21854SOL    HW265741   2.775   6.832   4.956 -1.5570 -0.9421  0.1367
21855SOL     OW65742   5.371   8.191   6.885 -0.0656  0.3461  0.0155
21855SOL    HW165743   5.346   8.236   6.799  1.5153  0.0539 -0.6166
21855SOL    HW265744   5.465   8.215   6.909  0.2840 -1.3793  0.4729
21856SOL     OW65745   1.671   5.807   0.736  0.0906 -0.0089 -0.4532
21856SOL    HW165746   1.593   5.764   0.780  0.5527 -0.0629  0.3446
21856SOL    HW265747   1.646   5.899   0.706 -0.7722 -0.6500 -1.7765
21857SOL     OW65748   2.733   0.771   5.759 -0.2815  0.4400 -0.6531
21857SOL    HW165749   2.648   0.722   5.775 -1.7404  2.8210 -0.6167
21857SOL    HW265750   2.775   0.795   5.847  1.2030 -1.8398 -0.6538
21858SOL     OW65751   0.367   7.080   6.611 -0.3852 -0.4072 -0.5441
21858SOL    HW165752   0.366   7.148   6.538  1.0311 -0.6819 -0.8329
21858SOL    HW265753   0.391   6.990   6.573  2.6357 -0.1623  0.5289
21859SOL     OW65754   2.195   4.029   6.195  0.6965 -0.4601 -0.6151
21859SOL    HW165755   2.267   3.963   6.176 -1.1708 -2.5155 -0.9930
21859SOL    HW265756   2.175   4.082   6.112  0.5296 -1.1876 -1.0481
21860SOL     OW65757   4.061   3.755   5.364 -0.4103  0.0125  0.0428
21860SOL    HW165758   4.130   3.683   5.358  0.7776  1.1084  0.0789
21860SOL    HW265759   4.054   3.787   5.459 -1.4104 -0.5053  0.1488
21861SOL     OW65760   3.511   0.351   6.727 -0.5040  0.0334 -0.0278
21861SOL    HW165761   3.467   0.311   6.647  0.1111 -1.2451  0.2424
21861SOL    HW265762   3.608   0.367   6.708 -0.9910  2.7982 -0.6085
21862SOL     OW65763   3.838   5.313   3.896  0.3820 -0.0801 -0.0161
21862SOL    HW165764   3.782   5.331   3.815 -0.2083  0.5849  0.5262
21862SOL    HW265765   3.900   5.237   3.878  0.1855 -0.0037 -1.0555
21863SOL     OW65766   0.548   3.117   0.763 -0.2232  0.2424  0.4183
21863SOL    HW165767   0.644   3.138   0.779 -0.3511  1.0637  0.1578
21863SOL    HW265768   0.532   3.109   0.664 -0.8304  2.2115  0.3332
21864SOL     OW65769   7.681   7.806   8.422  1.0223 -0.0238 -0.5997
21864SOL    HW165770   7.770   7.841   8.392  1.1123 -0.0128 -0.3220
21864SOL    HW265771   7.641   7.749   8.350  1.1547  0.1512 -0.8112
21865SOL     OW65772   1.986   1.383   3.684  0.6201  0.8237 -0.4127
21865SOL    HW165773   1.907   1.375   3.745 -0.1727  0.6752 -1.4242
21865SOL    HW265774   2.026   1.292   3.669  2.9282  1.2331  2.5168
21866SOL     OW65775   7.801   2.860   8.283  0.0679  0.3879 -0.0078
21866SOL    HW165776   7.857   2.943   8.279 -0.2242  0.6215  0.6034
21866SOL    HW265777   7.785   2.835   8.378 -0.0080 -0.2673 -0.1889
21867SOL     OW65778   5.722   7.086   6.333  0.3741 -0.0044 -0.2503
21867SOL    HW165779   5.721   7.096   6.234 -0.3577  0.5436 -0.1960
21867SOL    HW265780   5.661   7.153   6.374 -0.5232 -1.2188  0.4842
21868SOL     OW65781   2.298   2.152   8.782  0.1327  0.6842  0.5394
21868SOL    HW165782   2.370   2.098   8.824  0.1133 -0.1173 -0.4257
21868SOL    HW265783   2.209   2.111   8.803  0.1344  0.1632 -0.4117
21869SOL     OW65784   1.871   4.887   5.436  0.6504  0.2370 -0.0723
21869SOL    HW165785   1.827   4.962   5.485 -1.0116 -0.8330  0.1324
21869SOL    HW265786   1.950   4.855   5.489  0.6262  1.0015  0.4466
21870SOL     OW65787   2.727   1.819   5.435  0.2749 -0.1494 -0.0624
21870SOL    HW165788   2.635   1.783   5.452 -0.1773  0.5468 -0.9050
21870SOL    HW265789   2.773   1.836   5.522 -0.6286  0.0527  0.3909
21871SOL     OW65790   0.190   2.291   5.163  0.4441 -0.2105 -0.0419
21871SOL    HW165791   0.173   2.390   5.156  0.8021 -0.0856  0.7162
21871SOL    HW265792   0.199   2.252   5.072 -2.1832 -0.0020 -0.4730
21872SOL     OW65793   1.032   7.716   1.928 -0.0950  0.1137  0.0355
21872SOL    HW165794   1.067   7.738   2.019 -0.0782 -0.7708  0.2436
21872SOL    HW265795   1.097   7.748   1.859  0.5281 -0.4124  0.3771
21873SOL     OW65796   2.289   5.354   3.567  0.4469  0.0410  0.5139
21873SOL    HW165797   2.334   5.277   3.611  0.2562 -0.7859 -0.6702
21873SOL    HW265798   2.222   5.320   3.501  0.4513  1.2152 -0.1289
21874SOL     OW65799   7.968   2.059   0.095  1.3398  0.2318 -0.2962
21874SOL    HW165800   7.994   1.978   0.044 -1.7376 -0.1779 -1.4253
21874SOL    HW265801   7.913   2.033   0.175 -0.4528  1.1533 -1.1616
21875SOL     OW65802   2.996   8.767   8.372  0.3159 -0.0287 -0.3189
21875SOL    HW165803   2.905   8.806   8.383 -0.2130 -1.1898 -0.3709
21875SOL    HW265804   3.000   8.677   8.418  1.2638 -0.2417 -0.7818
21876SOL     OW65805   3.341   0.971   2.536  0.0989  0.0708 -0.4760
21876SOL    HW165806   3.258   1.006   2.579  0.3291  0.2471 -0.1722
21876SOL    HW265807   3.329   0.874   2.515 -0.5934  0.3505 -1.4518
21877SOL     OW65808   3.408   6.330   5.479  0.2349  0.8419  0.2083
21877SOL    HW165809   3.360   6.376   5.404  1.5149  0.1388 -1.1069
21877SOL    HW265810   3.399   6.384   5.563 -1.7349  1.3497 -0.2854
21878SOL     OW65811   0.293   0.329   6.013 -0.1213 -0.7241  0.0099
21878SOL    HW165812   0.311   0.415   5.965  2.6292 -0.3964  1.4550
21878SOL    HW265813   0.367   0.264   5.994  0.2751 -1.1082  2.5256
21879SOL     OW65814   4.614   3.454   7.964  0.4736 -0.0818 -0.1170
21879SOL    HW165815   4.571   3.542   7.946  3.6463  1.2218 -2.2254
21879SOL    HW265816   4.575   3.385   7.903  1.1761  1.0332 -1.9334
21880SOL     OW65817   1.099   0.078   7.602  0.1730  0.0301  0.0995
21880SOL    HW165818   0.999   0.076   7.593 -0.0668  1.8211  1.7578
21880SOL    HW265819   1.124   0.102   7.696  2.1655  0.4594 -0.4901
21881SOL     OW65820   8.284   8.408   3.221  0.2229  0.8862  0.3710
21881SOL    HW165821   8.283   8.496   3.173 -0.2854  0.0332 -1.2630
21881SOL    HW265822   8.235   8.340   3.166 -0.5588 -0.1183  2.2082
21882SOL     OW65823   2.025   0.034   4.059  0.0374  0.2856 -0.3856
21882SOL    HW165824   2.083  -0.024   4.001 -1.0021 -0.3908 -0.7845
21882SOL    HW265825   1.982   0.105   4.003  0.0251  0.4251 -0.2004
21883SOL     OW65826   5.334   7.852   4.238  1.2111  0.5454  0.2059
21883SOL    HW165827   5.375   7.841   4.329  0.8625 -1.5595  0.1724
21883SOL    HW265828   5.374   7.785   4.175 -1.7605 -1.2737  0.0449
21884SOL     OW65829   6.007   1.833   1.436  0.2297 -0.0366 -0.2440
21884SOL    HW165830   5.918   1.812   1.395  0.7377 -0.1331 -1.3407
21884SOL    HW265831   6.066   1.752   1.432  0.9731  0.5283 -1.2011
21885SOL     OW65832   3.244   1.681   3.957 -0.1322 -0.3600 -0.3526
21885SOL    HW165833   3.242   1.780   3.946 -1.0407 -0.4230 -0.8529
21885SOL    HW265834   3.327   1.644   3.915  0.1181  0.1662 -0.3281
21886SOL     OW65835   0.521   3.766   6.895  0.4282  0.3244  0.3205
21886SOL    HW165836   0.481   3.713   6.820 -1.2093 -0.8218  1.9189
21886SOL    HW265837   0.521   3.863   6.871  0.5334 -0.0661 -1.3977
21887SOL     OW65838   2.342   8.731   3.798  0.3213 -0.4095 -0.3803
21887SOL    HW165839   2.386   8.642   3.788  1.1877 -0.0793  0.3215
21887SOL    HW265840   2.404   8.793   3.845 -0.5083  0.3895 -0.3170
21888SOL     OW65841   4.752   3.375   7.218 -0.2466  0.1490 -0.1874
21888SOL    HW165842   4.747   3.282   7.253 -2.3650  0.5465  0.7310
21888SOL    HW265843   4.837   3.387   7.167  1.0847 -1.6666  1.4241
21889SOL     OW65844   3.540   8.125   4.622 -0.0842 -0.3262  0.1338
21889SOL    HW165845   3.452   8.090   4.655  0.2844  0.6485  2.3206
21889SOL    HW265846   3.530   8.220   4.594  0.5036  0.2101  1.6521
21890SOL     OW65847   6.676   0.552   3.415 -0.1142 -0.6310 -0.2779
21890SOL    HW165848   6.592   0.516   3.454  0.3356  0.1168  1.5165
21890SOL    HW265849   6.733   0.590   3.489  0.4158  1.6828 -1.7762
21891SOL     OW65850   5.618   4.346   1.429 -0.2114  0.6010 -0.5807
21891SOL    HW165851   5.714   4.362   1.406 -0.4483 -1.5232 -3.5107
21891SOL    HW265852   5.612   4.314   1.524  1.8582  1.3044 -0.1477
21892SOL     OW65853   1.451   0.172   1.890  0.0054  0.0952  0.2791
21892SOL    HW165854   1.503   0.251   1.859 -0.0452  0.2440  0.5675
21892SOL    HW265855   1.360   0.174   1.850  1.1861 -1.8602 -2.8387
21893SOL     OW65856   6.523   2.481   3.112 -0.0283  0.3688 -0.4443
21893SOL    HW165857   6.564   2.499   3.202 -0.4058 -1.0048  0.0342
21893SOL    HW265858   6.563   2.542   3.044  0.3233  1.3776  0.6423
21894SOL     OW65859   1.165   4.000   4.884 -0.0873 -0.1493  0.0738
21894SOL    HW165860   1.138   3.957   4.798  0.6473  2.8607 -1.7901
21894SOL    HW265861   1.083   4.024   4.936 -0.9562  2.5122 -2.2453
21895SOL     OW65862   4.381   1.782   7.529  0.0776  0.5848 -0.5043
21895SOL    HW165863   4.289   1.818   7.544 -0.1832 -0.1778 -0.2299
21895SOL    HW265864   4.380   1.720   7.451  0.5275  1.1536 -0.9790
21896SOL     OW65865   7.329   2.566   5.886 -0.3334  0.1330  0.2425
21896SOL    HW165866   7.410   2.624   5.889 -0.0050 -0.3348  0.3316
21896SOL    HW265867   7.317   2.520   5.973 -0.1327 -0.5702 -0.0977
21897SOL     OW65868   7.898   7.721   0.769 -1.0978  0.5832 -0.1592
21897SOL    HW165869   7.958   7.746   0.694 -1.0542 -0.4279 -0.4791
21897SOL    HW265870   7.893   7.796   0.835  0.3062  0.7850 -0.2545
21898SOL     OW65871   1.704   6.585   6.206  0.5650 -0.4507 -0.6267
21898SOL    HW165872   1.746   6.566   6.117  0.6445 -1.4838 -0.3752
21898SOL    HW265873   1.767   6.640   6.261  0.8787 -0.5437 -0.8879
21899SOL     OW65874   0.462   6.838   6.519  0.4651 -0.0549  0.0482
21899SOL    HW165875   0.431   6.816   6.427  0.4542 -1.2670  0.3253
21899SOL    HW265876   0.559   6.819   6.528  0.1453 -1.4984  0.7270
21900SOL     OW65877   8.114   5.819   2.397  0.1960 -0.1596  0.0578
21900SOL    HW165878   8.093   5.826   2.299  0.2979 -1.0804 -0.0448
21900SOL    HW265879   8.035   5.848   2.450  0.8454  2.4097 -0.2535
21901SOL     OW65880   3.752   0.376   8.179 -0.4193  0.0897  0.3161
21901SOL    HW165881   3.749   0.347   8.083 -1.2908  0.5137  0.2032
21901SOL    HW265882   3.838   0.347   8.220 -0.7766 -1.6542 -0.0988
21902SOL     OW65883   0.635   0.841   0.333 -0.2171  0.1782  0.4868
21902SOL    HW165884   0.645   0.757   0.280  0.5892  0.6952 -0.2172
21902SOL    HW265885   0.723   0.866   0.373 -0.3076  0.9866  0.2038
21903SOL     OW65886   4.735   7.832   8.477 -0.2093 -0.7729 -0.1458
21903SOL    HW165887   4.636   7.835   8.464 -0.1861 -1.7294 -0.6421
21903SOL    HW265888   4.768   7.923   8.504 -1.5104 -0.9780  2.3740
21904SOL     OW65889   5.535   1.343   4.723  0.4833  0.1487 -0.2223
21904SOL    HW165890   5.520   1.275   4.652 -0.3696 -1.0551  1.0481
21904SOL    HW265891   5.588   1.302   4.797  0.6085  1.1073  0.2363
21905SOL     OW65892   1.351   8.071   3.073  0.0815 -0.0632  0.2387
21905SOL    HW165893   1.294   8.012   3.129  1.1823  0.1101  1.5959
21905SOL    HW265894   1.309   8.082   2.982 -1.7524 -0.3235  1.0181
21906SOL     OW65895   7.083   6.242   6.357 -0.6543 -0.7702 -0.0546
21906SOL    HW165896   7.051   6.279   6.270 -0.0603 -2.4271 -1.0267
21906SOL    HW265897   7.011   6.187   6.399 -0.5077 -1.0365 -0.1480
21907SOL     OW65898   5.566   4.874   1.202  0.0032 -0.2614  0.0091
21907SOL    HW165899   5.602   4.786   1.171 -0.4810 -1.3319  2.3271
21907SOL    HW265900   5.641   4.941   1.206  0.7933 -1.1308  0.1740
21908SOL     OW65901   1.078   3.711   6.357  0.7069 -0.4288 -0.6089
21908SOL    HW165902   1.067   3.654   6.276 -0.7533 -2.6796  1.0624
21908SOL    HW265903   1.146   3.671   6.418  1.2080  0.8033 -0.3100
21909SOL     OW65904   1.243   4.892   5.987 -0.2035  0.1435 -0.1364
21909SOL    HW165905   1.207   4.805   5.951  0.6387 -1.6084  2.9524
21909SOL    HW265906   1.171   4.938   6.038  0.7183 -1.6209  3.0051
21910SOL     OW65907   0.084   2.681   0.987  0.0828  0.1417  0.7051
21910SOL    HW165908   0.106   2.601   0.931  0.6624  0.8917 -0.1699
21910SOL    HW265909   0.112   2.764   0.938  1.0098  0.8048  2.2966
21911SOL     OW65910   3.363   2.927   0.757 -0.3042  0.0083 -0.7275
21911SOL    HW165911   3.330   3.019   0.738  0.7471  0.1890 -1.8283
21911SOL    HW265912   3.461   2.930   0.780  0.4358 -1.0173 -3.3162
21912SOL     OW65913   3.065   2.309   0.929 -0.3818  0.0579 -0.1141
21912SOL    HW165914   2.974   2.269   0.923 -0.3947  0.2854 -2.1482
21912SOL    HW265915   3.060   2.395   0.979 -0.8763 -0.9518  1.6547
21913SOL     OW65916   7.031   0.943   3.409 -0.1352 -0.6511  0.2194
21913SOL    HW165917   7.123   0.943   3.448 -0.7759  0.3425  1.8303
21913SOL    HW265918   7.019   1.022   3.350  0.1887 -1.0552 -0.3983
21914SOL     OW65919   2.086   4.399   7.132  0.2048 -0.1101 -0.3203
21914SOL    HW165920   2.145   4.443   7.064  1.1489 -0.6105  0.1537
21914SOL    HW265921   2.141   4.371   7.210 -0.9557  0.9824  0.9301
21915SOL     OW65922   6.590   2.932   7.616 -0.0547  0.4644  0.2498
21915SOL    HW165923   6.498   2.964   7.591  0.5472  2.3615  0.3533
21915SOL    HW265924   6.583   2.873   7.697 -1.3906 -1.2301 -1.0179
21916SOL     OW65925   6.234   2.018   7.850  0.2784  0.1388 -0.2670
21916SOL    HW165926   6.283   1.963   7.917 -1.4046 -0.4708  0.5328
21916SOL    HW265927   6.191   1.959   7.783 -0.0878  0.5830 -0.4338
21917SOL     OW65928   2.293   6.998   4.007  0.1870  0.2118 -0.6169
21917SOL    HW165929   2.382   7.025   4.044  0.0534  0.6355 -0.6041
21917SOL    HW265930   2.228   7.073   4.019 -0.8671 -0.9781  1.6816
21918SOL     OW65931   6.734   3.594   6.265  0.6894 -0.2185  0.0776
21918SOL    HW165932   6.813   3.570   6.209 -0.2001 -0.7212 -1.0216
21918SOL    HW265933   6.751   3.567   6.360  1.8890 -0.1490 -0.0986
21919SOL     OW65934   7.212   2.546   3.650  0.2766  0.0008  0.2826
21919SOL    HW165935   7.113   2.559   3.636  0.5607 -0.2606 -2.6718
21919SOL    HW265936   7.237   2.452   3.625  1.4415  0.4625 -0.3524
21920SOL     OW65937   1.020   1.992   2.225  0.1910 -0.2553 -0.3565
21920SOL    HW165938   1.065   1.994   2.136  1.2058  0.6531  0.1422
21920SOL    HW265939   0.931   1.948   2.217  0.6856 -1.0770 -1.6123
21921SOL     OW65940   1.298   1.005   0.848 -0.4422  0.3045  0.2347
21921SOL    HW165941   1.258   0.971   0.763 -0.3556  1.4582 -0.2866
21921SOL    HW265942   1.247   0.969   0.926 -1.7168  0.7307 -0.3755
21922SOL     OW65943   2.218   8.718   1.413  0.2430  0.1200  0.1861
21922SOL    HW165944   2.252   8.812   1.419  0.3105  0.0631  0.6895
21922SOL    HW265945   2.132   8.710   1.464  0.7802 -0.3431  1.0407
21923SOL     OW65946   6.463   8.809   2.553  0.0565 -0.2000  0.6605
21923SOL    HW165947   6.411   8.725   2.540  1.6381 -1.0661 -0.4544
21923SOL    HW265948   6.403   8.888   2.542 -1.0159 -1.1558 -0.6063
21924SOL     OW65949   2.525   6.779   3.358  0.1367 -0.1082 -0.0425
21924SOL    HW165950   2.462   6.704   3.378  0.3414 -0.1242  0.5752
21924SOL    HW265951   2.515   6.850   3.429 -0.1795  0.5305 -0.7115
21925SOL     OW65952   3.985   7.932   0.318 -0.3960  0.1692 -0.0239
21925SOL    HW165953   3.988   7.988   0.401 -0.5686  1.6243 -0.9710
21925SOL    HW265954   3.979   7.835   0.344  0.3373  0.5338  1.6508
21926SOL     OW65955   3.884   4.923   3.370  0.3854  0.1539  0.4318
21926SOL    HW165956   3.839   4.853   3.425  0.6519  1.0723  1.8685
21926SOL    HW265957   3.821   4.956   3.299  0.2447 -1.4744 -0.2292
21927SOL     OW65958   6.626   4.756   2.152  0.3823  0.5263  0.1517
21927SOL    HW165959   6.611   4.845   2.195 -0.4515  0.7222 -0.5214
21927SOL    HW265960   6.693   4.765   2.080 -0.8279  0.9666 -0.9658
21928SOL     OW65961   1.160   8.371   6.217  0.4652  0.2479 -0.6723
21928SOL    HW165962   1.182   8.452   6.164  0.5119 -0.2144 -1.3625
21928SOL    HW265963   1.206   8.291   6.179 -0.5907 -0.3335 -0.7880
21929SOL     OW65964   0.178   3.140   5.483  0.1392  0.1835  0.2269
21929SOL    HW165965   0.113   3.168   5.553 -0.5624  0.6865 -0.5999
21929SOL    HW265966   0.129   3.101   5.405  0.6889  1.7635 -0.9628
21930SOL     OW65967   8.531   5.400   1.975  0.4823  0.1866  0.1961
21930SOL    HW165968   8.547   5.377   2.071 -0.1889  2.0115  0.7877
21930SOL    HW265969   8.543   5.498   1.962  1.3230 -0.1384 -1.7783
21931SOL     OW65970   8.096   3.480   4.638 -0.2924  0.1240 -0.0422
21931SOL    HW165971   8.030   3.544   4.600  0.5609  0.9791 -0.1288
21931SOL    HW265972   8.189   3.511   4.617  0.1482 -0.8348  0.4162
21932SOL     OW65973   8.148   4.118   7.279  0.0872 -0.1976  0.1341
21932SOL    HW165974   8.228   4.116   7.340  0.6677 -2.7716 -0.5864
21932SOL    HW265975   8.178   4.114   7.184 -0.8768  0.7995 -0.2270
21933SOL     OW65976   3.729   0.521   1.561  0.8653  0.3580  0.8617
21933SOL    HW165977   3.677   0.590   1.510  1.2037  1.0666  1.4439
21933SOL    HW265978   3.735   0.550   1.657 -0.1929 -1.1851  1.4259
21934SOL     OW65979   7.991   0.966   0.987  0.1659  0.8314  0.1322
21934SOL    HW165980   7.921   0.897   0.970  0.5462  0.6372 -0.6856
21934SOL    HW265981   8.037   0.947   1.074  0.6827 -0.3062 -0.3735
21935SOL     OW65982   2.943   3.672   5.314 -0.2494 -0.0497  0.2042
21935SOL    HW165983   2.940   3.766   5.280  2.2669 -0.1359 -0.4176
21935SOL    HW265984   3.006   3.665   5.391  1.2432 -1.5502 -1.0658
21936SOL     OW65985   3.324   0.504   4.953 -0.2502 -0.5457 -0.4549
21936SOL    HW165986   3.323   0.534   5.048 -1.9651 -1.6683 -0.0574
21936SOL    HW265987   3.418   0.491   4.923  0.6682  4.1008 -0.4044
21937SOL     OW65988   5.463   8.506   5.906 -0.9479  0.0374 -0.1707
21937SOL    HW165989   5.376   8.550   5.927 -0.2740  1.7473 -0.7891
21937SOL    HW265990   5.489   8.445   5.981 -2.2911  0.0944  0.3615
21938SOL     OW65991   0.854   7.473   5.419 -0.0138  0.5180 -0.2369
21938SOL    HW165992   0.871   7.388   5.368 -0.1191 -0.4957  1.3474
21938SOL    HW265993   0.921   7.542   5.392  1.9024 -0.9849  0.4817
21939SOL     OW65994   8.208   6.870   5.238 -0.0518  0.0381  0.1848
21939SOL    HW165995   8.172   6.940   5.301 -1.8106  0.5402 -1.2919
21939SOL    HW265996   8.221   6.911   5.148  0.5381 -1.1616 -0.2872
21940SOL     OW65997   1.682   2.767   2.048  0.2352  0.2400  0.0077
21940SOL    HW165998   1.649   2.675   2.070  1.5528 -0.4493 -0.7101
21940SOL    HW265999   1.683   2.823   2.130  2.4629 -1.4059  1.2320
21941SOL     OW66000   3.829   5.086   6.349 -0.3111 -0.0479  0.4255
21941SOL    HW166001   3.793   5.088   6.256 -0.8016  0.4314  0.6227
21941SOL    HW266002   3.894   5.010   6.358 -1.4022 -1.0427  0.1161
21942SOL     OW66003   5.237   8.070   3.495  0.2318 -0.1484  0.4674
21942SOL    HW166004   5.206   8.050   3.402  0.3503  1.0509  0.1529
21942SOL    HW266005   5.332   8.040   3.506 -0.6719 -3.0709  1.1775
21943SOL     OW66006   7.367   2.265   5.293 -0.0040 -0.4218  0.0062
21943SOL    HW166007   7.417   2.321   5.226 -2.0825  2.1697  0.4637
21943SOL    HW266008   7.303   2.206   5.245 -2.2094  2.1341 -0.4398
21944SOL     OW66009   3.012   6.056   5.017  0.0032 -0.0551  0.0519
21944SOL    HW166010   2.954   5.979   4.990  0.4131 -0.6286  0.7442
21944SOL    HW266011   3.026   6.117   4.940  0.8523 -1.4384 -0.9219
21945SOL     OW66012   5.371   4.209   8.285  0.1734 -0.6166 -0.7884
21945SOL    HW166013   5.396   4.218   8.188 -1.2356  0.4029 -1.1047
21945SOL    HW266014   5.400   4.291   8.334  1.5829 -1.4756 -0.1629
21946SOL     OW66015   2.399   5.559   1.604  0.1655 -0.6746 -0.4265
21946SOL    HW166016   2.335   5.528   1.534  0.3175 -1.2412 -0.3278
21946SOL    HW266017   2.488   5.517   1.588  0.5686  0.2591 -0.6703
21947SOL     OW66018   4.607   4.137   6.188 -0.0033 -0.1071 -0.7547
21947SOL    HW166019   4.668   4.100   6.258 -1.7798 -1.2373  0.2732
21947SOL    HW266020   4.556   4.215   6.225  0.7929  0.8634 -1.6229
21948SOL     OW66021   8.417   7.559   2.544 -0.0663  0.7736  0.3103
21948SOL    HW166022   8.512   7.571   2.517 -0.3638 -0.5000 -1.4244
21948SOL    HW266023   8.359   7.623   2.494 -0.3276  0.2031 -0.1323
21949SOL     OW66024   6.324   8.053   0.280  0.2795  0.3568  0.4550
21949SOL    HW166025   6.226   8.075   0.279  0.5200  1.4857 -0.2777
21949SOL    HW266026   6.377   8.137   0.275  1.2946 -0.2792  0.2350
21950SOL     OW66027   6.780   2.662   5.954 -0.3285 -0.3721  0.0364
21950SOL    HW166028   6.791   2.563   5.947 -0.2729 -0.4952  1.5305
21950SOL    HW266029   6.870   2.705   5.957 -0.3432 -0.1794 -1.3978
21951SOL     OW66030   1.791   0.624   2.306 -0.0409 -0.1966  0.0497
21951SOL    HW166031   1.730   0.545   2.308 -0.1952 -0.0799 -0.0252
21951SOL    HW266032   1.841   0.630   2.392  0.7841 -1.0116 -0.3548
21952SOL     OW66033   1.972   7.746   5.831  0.4837 -0.0683 -0.2405
21952SOL    HW166034   1.957   7.717   5.737  1.1988  0.8649 -0.6580
21952SOL    HW266035   1.943   7.841   5.842  1.6026  0.2462  0.1340
21953SOL     OW66036   5.311   8.861   3.509 -0.2463 -0.0711 -0.4904
21953SOL    HW166037   5.291   8.928   3.438 -1.1570  0.5726  0.3520
21953SOL    HW266038   5.249   8.875   3.587 -0.1074 -1.5570 -0.0842
21954SOL     OW66039   5.514   0.680   4.407 -0.3454 -0.2099  0.0941
21954SOL    HW166040   5.588   0.676   4.474 -0.1942 -0.1649 -0.0706
21954SOL    HW266041   5.550   0.712   4.319 -0.6895  0.4432  0.1934
21955SOL     OW66042   5.728   0.635   7.821  0.7727 -0.4028 -0.5804
21955SOL    HW166043   5.809   0.664   7.872  0.0530  1.5197 -0.4411
21955SOL    HW266044   5.659   0.708   7.823 -1.0682 -2.0649 -0.5186
21956SOL     OW66045   5.015   7.440   1.193  0.0943  0.3895  0.5018
21956SOL    HW166046   4.994   7.421   1.289  0.4224  1.5347  0.8188
21956SOL    HW266047   4.949   7.394   1.134  0.3013 -0.9056  1.2377
21957SOL     OW66048   8.179   6.064   4.365 -0.8254  0.2592 -0.2079
21957SOL    HW166049   8.155   6.161   4.357 -0.4009  0.5006  1.2232
21957SOL    HW266050   8.165   6.034   4.459  0.1111 -0.7792 -0.3830
21958SOL     OW66051   2.702   4.278   2.798  0.5443  0.5722  0.0395
21958SOL    HW166052   2.669   4.357   2.745  1.9604  1.5243  0.5317
21958SOL    HW266053   2.788   4.302   2.843  0.4697 -0.9375  1.0321
21959SOL     OW66054   7.500   3.583   0.878  0.0410 -0.2211 -0.5497
21959SOL    HW166055   7.451   3.496   0.874 -0.9167  0.3304 -2.0033
21959SOL    HW266056   7.519   3.615   0.785 -0.4368  1.5358 -0.0915
21960SOL     OW66057   4.055   3.272   4.320  0.0340  0.4573 -0.1911
21960SOL    HW166058   4.092   3.300   4.408 -1.1451  2.0249 -0.1539
21960SOL    HW266059   4.054   3.172   4.314 -0.1862  0.3093  1.7128
21961SOL     OW66060   7.984   0.941   2.772  0.4623  0.1506  0.5637
21961SOL    HW166061   8.028   0.893   2.848  0.0700 -0.1289  0.6197
21961SOL    HW266062   7.889   0.910   2.764  1.2319 -1.9420 -1.8094
21962SOL     OW66063   1.545   3.741   0.706 -0.5597  0.3744 -0.1058
21962SOL    HW166064   1.475   3.807   0.733 -0.2720  0.8008 -0.3851
21962SOL    HW266065   1.537   3.658   0.762 -1.0016  0.5982  0.1635
21963SOL     OW66066   2.574   3.378   2.038 -0.2925  0.0495  0.0514
21963SOL    HW166067   2.539   3.285   2.046  0.7198 -0.3589 -0.1008
21963SOL    HW266068   2.503   3.443   2.067 -0.8088 -0.7876  0.7327
21964SOL     OW66069   0.997   0.394   8.502  0.0835  0.9844 -0.4945
21964SOL    HW166070   1.043   0.409   8.414  0.4031  1.1964 -0.2914
21964SOL    HW266071   0.909   0.348   8.486  0.6059  0.0789 -0.8307
21965SOL     OW66072   2.769   2.941   3.804 -0.1291  0.0332 -0.2653
21965SOL    HW166073   2.712   3.022   3.790  1.3921  0.8531 -2.0636
21965SOL    HW266074   2.821   2.952   3.889 -1.2928  0.0624  0.4724
21966SOL     OW66075   1.251   7.599   7.574 -0.8191  0.0608 -0.1631
21966SOL    HW166076   1.226   7.519   7.518  2.3342 -2.0234  1.1242
21966SOL    HW266077   1.189   7.605   7.652 -1.2884 -0.9812 -0.4293
21967SOL     OW66078   2.840   3.487   2.233 -0.1344  0.1549 -0.4276
21967SOL    HW166079   2.761   3.549   2.230 -1.0981 -1.0462 -0.3781
21967SOL    HW266080   2.818   3.408   2.289  0.4847 -1.0307 -1.7993
21968SOL     OW66081   5.159   6.804   8.608 -0.0732 -0.0895  0.6641
21968SOL    HW166082   5.162   6.764   8.516 -0.8256 -1.5438  1.2366
21968SOL    HW266083   5.115   6.894   8.604  0.1903  0.0016 -0.4360
21969SOL     OW66084   4.862   1.278   4.803 -0.1492 -0.1021 -0.1365
21969SOL    HW166085   4.875   1.184   4.834 -2.0223  0.4633  2.8113
21969SOL    HW266086   4.797   1.279   4.727 -0.3302 -1.1834 -0.0142
21970SOL     OW66087   1.916   1.713   2.111  0.0985  0.4252  0.1659
21970SOL    HW166088   1.984   1.672   2.172  1.1833  1.2678 -0.4543
21970SOL    HW266089   1.831   1.660   2.116  1.2245 -1.4976 -0.0885
21971SOL     OW66090   0.775   5.856   6.093 -0.5407 -0.2303  0.2632
21971SOL    HW166091   0.758   5.949   6.127 -0.4853  0.9533 -2.6401
21971SOL    HW266092   0.735   5.846   6.002  1.4412 -2.2831 -0.4747
21972SOL     OW66093   4.631   6.694   0.339  0.1846 -0.0597  0.4355
21972SOL    HW166094   4.688   6.741   0.407 -0.0026  0.2840  0.3587
21972SOL    HW266095   4.572   6.627   0.385 -0.3381  0.5595  0.6868
21973SOL     OW66096   5.024   0.756   3.992 -0.4561  0.0627  0.0735
21973SOL    HW166097   4.950   0.816   4.025 -0.6978  0.3507 -0.9588
21973SOL    HW266098   4.989   0.698   3.919  0.6068  1.0037 -1.2197
21974SOL     OW66099   3.874   0.256   0.021  0.0356  0.2751 -0.5138
21974SOL    HW166100   3.956   0.312   0.031  0.0223 -0.0468  2.2704
21974SOL    HW266101   3.898   0.159   0.024 -0.4140  0.1781  0.4476
21975SOL     OW66102   3.251   6.449   0.223  0.7022  0.2937 -0.0827
21975SOL    HW166103   3.341   6.488   0.243  0.3212  0.4179  1.5708
21975SOL    HW266104   3.239   6.439   0.124  2.0313  1.4485 -0.3823
21976SOL     OW66105   1.774   8.162   7.033  0.5845 -0.3946 -0.0343
21976SOL    HW166106   1.747   8.236   6.972  0.7214 -0.2894  0.0321
21976SOL    HW266107   1.874   8.161   7.042  0.4969  0.4020  1.2102
21977SOL     OW66108   1.373   6.009   3.613  0.0425 -0.3700 -0.1213
21977SOL    HW166109   1.385   5.951   3.694  2.2983 -2.3208 -1.7187
21977SOL    HW266110   1.388   5.955   3.530 -0.2698  1.9774 -1.8227
21978SOL     OW66111   6.331   2.941   7.477 -0.0643  0.2136 -0.1531
21978SOL    HW166112   6.301   2.947   7.381 -0.5948  1.4831  0.0640
21978SOL    HW266113   6.299   2.855   7.517 -1.3024  0.4194 -0.6507
21979SOL     OW66114   6.135   2.281   6.250  0.3208 -0.1552  0.1990
21979SOL    HW166115   6.124   2.362   6.193 -0.3915 -0.5943 -0.3123
21979SOL    HW266116   6.100   2.300   6.342 -3.1780 -0.8638 -0.8136
21980SOL     OW66117   3.132   7.600   7.615 -0.5841  0.4031 -0.7015
21980SOL    HW166118   3.052   7.557   7.572 -0.5221 -0.2450 -0.1756
21980SOL    HW266119   3.200   7.531   7.638 -0.4025  0.7994 -0.0032
21981SOL     OW66120   8.438   6.952   7.312  0.1419 -0.4740  0.1908
21981SOL    HW166121   8.486   6.915   7.233  0.3025  1.2406 -0.5740
21981SOL    HW266122   8.504   6.988   7.378  0.0406 -2.5267  1.4943
21982SOL     OW66123   6.763   5.021   1.566 -0.2880 -0.3872  0.3196
21982SOL    HW166124   6.795   4.933   1.603  1.0922 -0.1369 -0.1922
21982SOL    HW266125   6.834   5.090   1.582 -1.1919  0.5407  0.3546
21983SOL     OW66126   5.626   4.370   4.406  0.1317 -0.0046  0.1924
21983SOL    HW166127   5.683   4.413   4.336 -0.7796 -0.6095 -0.9411
21983SOL    HW266128   5.682   4.352   4.487  1.3648  0.1337 -0.6040
21984SOL     OW66129   7.361   4.313   6.950 -0.0530 -0.4221  0.1140
21984SOL    HW166130   7.400   4.243   6.890  0.6847 -0.5734  0.7593
21984SOL    HW266131   7.388   4.404   6.917 -0.5474 -0.4606 -0.4021
21985SOL     OW66132   5.387   2.478   2.283 -0.4975  0.0294  0.4072
21985SOL    HW166133   5.410   2.499   2.189  2.0174  0.7392  1.1005
21985SOL    HW266134   5.395   2.379   2.298 -0.5301 -0.0400 -0.0263
21986SOL     OW66135   2.991   7.186   3.160  0.1870  0.2268  0.2778
21986SOL    HW166136   3.023   7.092   3.165  0.9051  0.4709  0.4796
21986SOL    HW266137   3.019   7.226   3.072 -0.6259  0.0767 -0.0567
21987SOL     OW66138   3.593   5.977   5.624 -1.0445 -0.1002  0.6048
21987SOL    HW166139   3.524   5.944   5.688  0.2836 -0.9439  1.6502
21987SOL    HW266140   3.659   6.035   5.672  0.4736 -1.4381  0.2247
21988SOL     OW66141   5.823   5.702   3.562 -0.0005  0.0784 -0.1898
21988SOL    HW166142   5.889   5.656   3.622 -0.2178  1.7014  1.4004
21988SOL    HW266143   5.730   5.672   3.586  0.0254 -0.6310 -0.9732
21989SOL     OW66144   6.535   5.705   6.595 -0.0065  0.2313  0.7516
21989SOL    HW166145   6.620   5.660   6.568 -0.8559 -0.7151 -0.4334
21989SOL    HW266146   6.499   5.660   6.677 -1.1203 -1.6847 -0.7187
21990SOL     OW66147   1.614   0.992   3.183  0.1195 -0.2817 -0.3553
21990SOL    HW166148   1.606   0.954   3.091  1.2614  0.1549 -0.6627
21990SOL    HW266149   1.710   0.989   3.211 -0.2580 -0.6274  0.9266
21991SOL     OW66150   8.334   0.731   6.943 -0.1849 -0.0870 -0.2213
21991SOL    HW166151   8.274   0.690   7.012  1.6094  0.0856  1.5506
21991SOL    HW266152   8.364   0.661   6.878 -0.9025 -0.5427 -0.0707
21992SOL     OW66153   0.683   4.866   2.852  0.4131  0.0694  0.0867
21992SOL    HW166154   0.672   4.841   2.949  0.9166  0.6143  0.2883
21992SOL    HW266155   0.780   4.873   2.831  0.2916  0.5444 -0.3106
21993SOL     OW66156   5.390   1.930   7.221  0.0733 -0.0564 -0.0555
21993SOL    HW166157   5.444   1.856   7.261 -2.1851 -0.0884  3.4125
21993SOL    HW266158   5.307   1.892   7.179 -0.2358  0.3667  0.1629
21994SOL     OW66159   0.046   3.313   1.558  1.0572 -0.2355 -0.0091
21994SOL    HW166160   0.136   3.332   1.596  1.1235 -3.5312  1.7883
21994SOL    HW266161  -0.024   3.333   1.626  0.5407  0.4624 -0.7190
21995SOL     OW66162   2.332   0.396   7.399  0.0068 -0.4818  0.7100
21995SOL    HW166163   2.373   0.435   7.482  0.3385 -2.0679  1.3339
21995SOL    HW266164   2.235   0.419   7.395  0.1963  0.3944  1.0453
21996SOL     OW66165   5.191   7.403   7.488 -0.4639 -0.3814 -0.1981
21996SOL    HW166166   5.117   7.345   7.520 -1.4669  1.2298  0.5500
21996SOL    HW266167   5.156   7.495   7.469  1.5117  0.8128  1.4276
21997SOL     OW66168   8.284   3.210   8.123 -0.2531 -0.5462  0.0276
21997SOL    HW166169   8.238   3.263   8.193  0.0464 -1.7539  1.1729
21997SOL    HW266170   8.222   3.141   8.086 -0.5344  0.3200 -1.2132
21998SOL     OW66171   7.301   1.470   0.053  0.5220 -0.2623  0.1170
21998SOL    HW166172   7.272   1.375   0.045  1.2518 -0.5067  0.3789
21998SOL    HW266173   7.220   1.529   0.054  0.0572 -0.8981  0.2774
21999SOL     OW66174   8.798   8.610   7.372 -0.7230 -0.9867 -0.1439
21999SOL    HW166175   8.753   8.691   7.408  1.3313  0.4595 -0.6210
21999SOL    HW266176   8.851   8.566   7.444 -0.3147 -0.7682 -0.3014
22000SOL     OW66177   3.043   6.042   0.910  0.0412  0.0650 -0.2682
22000SOL    HW166178   3.121   5.994   0.870 -0.1537  0.0996 -0.6995
22000SOL    HW266179   3.026   6.126   0.858  0.6970  0.8802  0.7840
22001SOL     OW66180   4.410   8.253   7.604  0.0619 -0.2688 -0.1672
22001SOL    HW166181   4.376   8.347   7.594  0.9223  0.1963  0.9952
22001SOL    HW266182   4.485   8.237   7.539 -0.0306 -0.1191 -0.3103
22002SOL     OW66183   4.027   5.489   4.000 -0.1670 -0.7466 -0.4380
22002SOL    HW166184   3.963   5.424   3.959  1.0473 -1.4021 -1.3520
22002SOL    HW266185   4.116   5.445   4.012  0.4215  0.4725 -0.2011
22003SOL     OW66186   5.937   8.768   1.987  0.0080 -0.4930  0.1170
22003SOL    HW166187   6.025   8.817   1.988  0.8304 -1.7298 -2.4894
22003SOL    HW266188   5.953   8.671   1.969 -1.8724 -0.8549  0.2377
22004SOL     OW66189   3.077   3.211   5.173 -0.0445 -0.3144 -0.1346
22004SOL    HW166190   3.115   3.240   5.260 -1.7599 -1.4463  1.0657
22004SOL    HW266191   3.148   3.216   5.102  1.0649  1.7829  1.0193
22005SOL     OW66192   1.848   1.691   5.154 -0.4879  0.2547  0.6732
22005SOL    HW166193   1.939   1.727   5.175 -0.7360  0.8133  0.8106
22005SOL    HW266194   1.856   1.616   5.089  0.0240  0.7453  0.1607
22006SOL     OW66195   0.123   3.038   1.217 -0.0282 -0.6249 -0.6690
22006SOL    HW166196   0.025   3.034   1.236  0.2977 -0.8815  1.1752
22006SOL    HW266197   0.167   2.954   1.248  0.5963 -1.1636 -2.8616
22007SOL     OW66198   1.042   0.806   3.244  0.4921 -0.4722 -0.5575
22007SOL    HW166199   1.049   0.905   3.253  1.3421 -0.5219 -0.6381
22007SOL    HW266200   1.109   0.774   3.177 -1.5206 -0.8014 -2.5184
22008SOL     OW66201   5.239   7.825   2.169 -0.2563 -0.2354 -0.8077
22008SOL    HW166202   5.328   7.871   2.163 -0.8373  0.7704 -2.2135
22008SOL    HW266203   5.253   7.726   2.170  0.8703 -0.1050 -1.5477
22009SOL     OW66204   0.839   0.858   1.951  0.5434  0.0885 -0.9082
22009SOL    HW166205   0.920   0.815   1.911  1.5265  1.4504 -0.4812
22009SOL    HW266206   0.784   0.900   1.878  0.7837  0.0598 -1.1062
22010SOL     OW66207   0.253   1.093   6.085  0.1190 -0.0416 -0.0153
22010SOL    HW166208   0.333   1.062   6.035 -1.1956 -2.5269 -0.7372
22010SOL    HW266209   0.182   1.120   6.020 -0.4117  0.0113  0.5790
22011SOL     OW66210   4.857   2.915   3.280  0.3074  0.0854 -0.4818
22011SOL    HW166211   4.763   2.890   3.255 -0.1504  0.8686  0.3466
22011SOL    HW266212   4.866   3.015   3.278  0.5470  0.1401  1.2661
22012SOL     OW66213   0.960   6.386   2.629  0.9650 -0.3101 -0.7261
22012SOL    HW166214   1.017   6.373   2.548  1.1075 -1.6965 -0.4308
22012SOL    HW266215   1.017   6.377   2.711  0.5254 -0.5331 -0.4458
22013SOL     OW66216   2.708   5.840   6.301 -0.2774  0.7246 -0.3607
22013SOL    HW166217   2.753   5.855   6.213  0.2075 -1.0064 -0.4407
22013SOL    HW266218   2.683   5.744   6.310  1.7603  0.3388  2.3543
22014SOL     OW66219   1.040   0.834   7.167  0.0755 -0.5073  0.2136
22014SOL    HW166220   1.004   0.842   7.074  0.4553  0.5644  0.1451
22014SOL    HW266221   1.004   0.751   7.210  0.2424 -1.2528 -1.0403
22015SOL     OW66222   7.600   8.787   4.345 -0.2326 -0.1467  0.3392
22015SOL    HW166223   7.591   8.688   4.355 -2.8806 -0.0278 -0.0173
22015SOL    HW266224   7.547   8.817   4.266  1.0727  1.5008  0.0541
22016SOL     OW66225   6.795   7.053   5.747 -0.3118 -0.3295 -0.5283
22016SOL    HW166226   6.878   6.998   5.753  0.4390  0.7133 -0.9588
22016SOL    HW266227   6.813   7.144   5.786 -1.3075 -0.1426 -0.4766
22017SOL     OW66228   3.304   1.184   2.917  0.3458 -0.3124 -0.2190
22017SOL    HW166229   3.343   1.102   2.875 -0.2420 -0.2669 -0.8700
22017SOL    HW266230   3.338   1.265   2.870  0.7831 -0.1836  0.3075
22018SOL     OW66231   8.409   8.243   7.414 -0.2154 -0.3143 -0.1086
22018SOL    HW166232   8.401   8.326   7.360 -0.9188  0.3619  0.9920
22018SOL    HW266233   8.504   8.230   7.442  0.3425 -1.1896 -2.2444
22019SOL     OW66234   2.591   0.806   0.246 -0.3795  0.0727 -0.2852
22019SOL    HW166235   2.525   0.771   0.312 -0.4742  1.0639  0.1553
22019SOL    HW266236   2.587   0.750   0.163 -1.6369  0.0075 -0.2039
22020SOL     OW66237   8.793   2.135   0.261  0.0405  0.5069 -0.2874
22020SOL    HW166238   8.735   2.054   0.261 -0.6733  0.9782  1.2546
22020SOL    HW266239   8.871   2.121   0.200 -0.2574 -1.1864 -0.3059
22021SOL     OW66240   8.392   5.494   8.412  0.1392  0.1682  0.0434
22021SOL    HW166241   8.297   5.480   8.442  0.1047  0.6004  0.1535
22021SOL    HW266242   8.453   5.492   8.491  0.0342  1.4335  0.1897
22022SOL     OW66243   1.868   2.029   1.876 -0.1276  0.2973 -0.0541
22022SOL    HW166244   1.817   2.103   1.919 -0.1604 -0.0423  0.5016
22022SOL    HW266245   1.806   1.973   1.820 -0.0946  0.7059 -0.5083
22023SOL     OW66246   7.435   8.785   5.110  0.1151  0.6361 -0.1465
22023SOL    HW166247   7.407   8.692   5.085  0.3630  0.6568 -0.5116
22023SOL    HW266248   7.504   8.818   5.045 -1.5852  1.9241 -1.3606
22024SOL     OW66249   7.253   0.881   3.555 -0.3989 -0.3716 -0.3531
22024SOL    HW166250   7.320   0.895   3.628 -0.5435  0.5216 -0.3738
22024SOL    HW266251   7.300   0.852   3.471 -0.1231 -0.4983 -0.1532
22025SOL     OW66252   1.799   3.913   3.549 -0.9046 -0.1069  0.0901
22025SOL    HW166253   1.787   3.854   3.629 -0.3010 -1.3715 -0.7399
22025SOL    HW266254   1.871   3.980   3.568 -2.9047  1.7313  1.7727
22026SOL     OW66255   7.303   8.586   5.446  0.1349  0.0090  0.1717
22026SOL    HW166256   7.291   8.548   5.538  1.4178 -1.3538 -0.1960
22026SOL    HW266257   7.378   8.540   5.400  1.2182  2.4069 -0.6432
22027SOL     OW66258   1.516   1.906   0.305 -0.7547 -0.0217  0.0844
22027SOL    HW166259   1.454   1.936   0.377  0.8196 -0.6678  1.8006
22027SOL    HW266260   1.553   1.985   0.257 -2.0068  0.4094 -0.2011
22028SOL     OW66261   3.341   8.578   2.186  0.5863 -0.1962  0.1958
22028SOL    HW166262   3.366   8.615   2.096  1.4253  0.1868  0.5832
22028SOL    HW266263   3.396   8.621   2.257  0.4003 -0.9859  0.8363
22029SOL     OW66264   5.596   6.830   6.371 -0.6368 -0.0035  0.0665
22029SOL    HW166265   5.641   6.905   6.323  1.3186 -1.3121 -0.2289
22029SOL    HW266266   5.497   6.838   6.360 -0.3306  0.6048 -2.8832
22030SOL     OW66267   2.487   1.952   4.359 -0.7822  0.3932  0.3456
22030SOL    HW166268   2.573   1.999   4.337 -0.2176 -1.2942 -1.2971
22030SOL    HW266269   2.441   2.001   4.433  1.3360  1.6335  0.9418
22031SOL     OW66270   1.547   2.485   6.404  0.0253 -0.0050 -0.3904
22031SOL    HW166271   1.531   2.503   6.501  0.8222  2.8685 -0.7063
22031SOL    HW266272   1.459   2.480   6.356 -0.3380  2.1538 -0.0399
22032SOL     OW66273   2.185   6.339   0.568 -0.0673  0.4942 -0.1889
22032SOL    HW166274   2.205   6.420   0.623 -1.9975  0.8372  0.0777
22032SOL    HW266275   2.182   6.365   0.472 -1.4446  0.9484 -0.0486
22033SOL     OW66276   4.164   1.165   4.961 -1.2719  0.2861 -0.2072
22033SOL    HW166277   4.078   1.173   4.911 -1.9364  0.9852  1.0073
22033SOL    HW266278   4.163   1.081   5.016 -0.8688 -0.0663 -0.7161
22034SOL     OW66279   5.769   7.057   7.545 -0.5126 -0.1295 -0.0865
22034SOL    HW166280   5.839   7.127   7.528 -0.2431  0.0798  1.6748
22034SOL    HW266281   5.710   7.049   7.465  1.6700 -0.5226 -1.7818
22035SOL     OW66282   8.056   8.356   6.464 -0.1157 -0.3454 -0.2333
22035SOL    HW166283   7.976   8.300   6.483 -0.9890  0.8583 -0.2082
22035SOL    HW266284   8.139   8.307   6.490 -0.8625 -1.4487  0.1378
22036SOL     OW66285   4.220   2.073   1.113 -0.0357  0.0755  0.4441
22036SOL    HW166286   4.121   2.081   1.099  0.0995  1.5088  0.0947
22036SOL    HW266287   4.258   2.164   1.130  1.2603 -0.4273  0.3193
22037SOL     OW66288   4.625   1.759   2.181  0.0568  0.2645 -0.7292
22037SOL    HW166289   4.687   1.681   2.173 -0.9600 -0.5448 -1.0364
22037SOL    HW266290   4.547   1.733   2.239 -0.5766  0.8647 -1.2956
22038SOL     OW66291   2.817   5.849   8.149 -0.5217  0.9192 -0.1350
22038SOL    HW166292   2.788   5.757   8.125 -0.8361  0.8185  0.6211
22038SOL    HW266293   2.761   5.884   8.225  1.3233  0.7037  1.3974
22039SOL     OW66294   4.397   6.533   8.605 -0.4016  0.4934 -0.1737
22039SOL    HW166295   4.353   6.575   8.526  1.3232  0.4652 -1.1889
22039SOL    HW266296   4.344   6.452   8.633 -0.6407  0.0573 -1.7833
22040SOL     OW66297   4.716   5.493   1.430  0.6956 -0.5276  0.0924
22040SOL    HW166298   4.778   5.548   1.374  0.3448 -0.5340 -0.3135
22040SOL    HW266299   4.733   5.511   1.527  1.0122 -0.1784 -0.0250
22041SOL     OW66300   3.182   3.301   3.772  0.7085  0.4054  0.0496
22041SOL    HW166301   3.135   3.213   3.770  1.5188 -0.0409  0.4379
22041SOL    HW266302   3.132   3.366   3.714  0.0465 -0.2730 -0.1585
22042SOL     OW66303   4.592   3.365   0.441  0.2212  0.6089 -0.8572
22042SOL    HW166304   4.584   3.330   0.535 -0.3184 -1.0111 -1.4768
22042SOL    HW266305   4.686   3.352   0.409 -0.0766 -0.7507 -1.2370
22043SOL     OW66306   1.723   0.384   6.226 -0.0889  0.1535  0.3873
22043SOL    HW166307   1.696   0.395   6.321 -0.7913  1.0214  0.1052
22043SOL    HW266308   1.651   0.337   6.175  0.9887 -1.8353  0.6089
22044SOL     OW66309   7.951   8.591   3.881  0.3987  0.3620  0.1992
22044SOL    HW166310   8.020   8.538   3.932 -0.4693 -0.0817  0.9312
22044SOL    HW266311   7.977   8.593   3.784 -1.1304 -4.2444 -0.5574
22045SOL     OW66312   0.258   3.189   7.775  0.0219 -0.2706  0.1489
22045SOL    HW166313   0.264   3.287   7.796 -2.4256 -0.0978  0.3857
22045SOL    HW266314   0.226   3.140   7.856 -0.2379 -1.0347 -0.4097
22046SOL     OW66315   2.298   3.383   1.123  0.3521 -0.6522 -0.2536
22046SOL    HW166316   2.235   3.344   1.190  0.4378 -2.1828 -1.0226
22046SOL    HW266317   2.247   3.442   1.060  0.1871  0.3722  0.7917
22047SOL     OW66318   2.934   4.016   4.318  0.1319 -0.2785 -0.4905
22047SOL    HW166319   3.031   3.990   4.319  0.4729  0.8089 -1.8488
22047SOL    HW266320   2.925   4.112   4.293 -1.3032 -0.3758 -0.4452
22048SOL     OW66321   3.778   8.806   2.346 -0.5612 -0.0220  0.0466
22048SOL    HW166322   3.785   8.706   2.347 -0.5463 -0.0285 -0.4221
22048SOL    HW266323   3.774   8.840   2.440 -1.6297 -0.5424  0.2078
22049SOL     OW66324   8.270   3.495   5.720  0.1947 -0.2419 -0.0367
22049SOL    HW166325   8.290   3.440   5.801  2.3585 -0.6373 -0.7534
22049SOL    HW266326   8.220   3.578   5.746  1.5375  0.0370  1.8389
22050SOL     OW66327   3.170   0.176   7.345 -0.3655 -0.7033  0.7442
22050SOL    HW166328   3.148   0.144   7.253 -1.5946  0.8141  0.4680
22050SOL    HW266329   3.110   0.132   7.411 -0.8429 -0.3009  0.5795
22051SOL     OW66330   8.634   0.357   5.772  0.1608  0.1214  0.9456
22051SOL    HW166331   8.558   0.377   5.834 -0.9064 -1.1032  0.0758
22051SOL    HW266332   8.682   0.276   5.805 -1.2944 -1.4065 -0.5442
22052SOL     OW66333   5.288   5.511   0.958 -0.0719 -0.3169  0.6240
22052SOL    HW166334   5.304   5.595   1.010  0.7935 -0.1852  0.1566
22052SOL    HW266335   5.360   5.445   0.977  0.1365 -0.3527 -0.2241
22053SOL     OW66336   7.922   7.079   4.816 -0.3013  0.4771 -0.2867
22053SOL    HW166337   7.850   7.132   4.859  0.7234  0.4933  1.5191
22053SOL    HW266338   7.985   7.046   4.886  2.2185  1.6117 -1.8768
22054SOL     OW66339   3.653   1.244   2.985 -0.6222 -0.2630  0.4161
22054SOL    HW166340   3.607   1.273   3.069 -1.6864  0.0144 -0.2394
22054SOL    HW266341   3.710   1.164   3.004 -1.0125 -0.3299  1.3606
22055SOL     OW66342   5.034   6.050   6.069 -0.4084 -0.5805 -0.0859
22055SOL    HW166343   4.963   6.109   6.107  1.9020  0.3520  3.1612
22055SOL    HW266344   5.056   5.977   6.135 -0.5402 -2.8647 -2.3993
22056SOL     OW66345   8.367   8.506   1.912 -0.3429 -0.1071 -0.1025
22056SOL    HW166346   8.273   8.478   1.890 -0.1345 -0.8393 -0.0901
22056SOL    HW266347   8.413   8.432   1.960  0.3499  0.1209 -0.4055
22057SOL     OW66348   5.702   4.887   1.509 -0.0976  0.1387 -0.7306
22057SOL    HW166349   5.709   4.865   1.412  0.2686  0.7531 -0.8474
22057SOL    HW266350   5.774   4.840   1.559  0.3485  0.6140 -0.9062
22058SOL     OW66351   2.135   4.160   3.832  0.0055 -0.0115  0.5841
22058SOL    HW166352   2.167   4.239   3.780 -0.6609 -0.9607 -1.3781
22058SOL    HW266353   2.107   4.189   3.924 -1.9419  2.3719 -0.6614
22059SOL     OW66354   6.509   4.371   6.753 -0.4658 -0.3789 -0.3822
22059SOL    HW166355   6.485   4.422   6.835 -0.1549 -0.3100 -0.3367
22059SOL    HW266356   6.596   4.324   6.766 -0.3418 -0.2500 -0.7267
22060SOL     OW66357   1.184   5.940   6.317  0.0469  0.5827  0.3224
22060SOL    HW166358   1.134   5.913   6.235  0.8773 -1.7222  0.5031
22060SOL    HW266359   1.269   5.985   6.291  0.3806 -0.2807 -0.0842
22061SOL     OW66360   4.177   3.891   4.027 -0.1030  0.5840  0.0209
22061SOL    HW166361   4.190   3.880   4.125 -1.3217  2.0443  0.3848
22061SOL    HW266362   4.252   3.944   3.989  0.5372 -0.2539  0.0842
22062SOL     OW66363   0.661   6.272   2.316  0.8301  0.2935  0.4135
22062SOL    HW166364   0.602   6.228   2.248  1.6434 -0.1000 -0.0461
22062SOL    HW266365   0.634   6.368   2.325  1.2349  0.5738 -1.0840
22063SOL     OW66366   4.397   7.409   3.118 -0.1124 -0.0927 -0.0032
22063SOL    HW166367   4.339   7.391   3.039 -0.9683 -2.1538  1.0055
22063SOL    HW266368   4.344   7.458   3.188  0.5118  1.3344 -0.4920
22064SOL     OW66369   1.645   7.199   4.609 -0.4777  0.1201  0.7621
22064SOL    HW166370   1.740   7.167   4.611  0.1965  1.9606  0.4322
22064SOL    HW266371   1.627   7.243   4.521 -1.5309  0.1232  0.9692
22065SOL     OW66372   5.274   2.428   2.616  0.2811 -0.1133 -0.7172
22065SOL    HW166373   5.364   2.454   2.652  0.4116 -0.4019 -0.8317
22065SOL    HW266374   5.270   2.450   2.519  0.9015 -1.7820 -1.1502
22066SOL     OW66375   5.502   7.443   4.849 -0.1104  0.5856 -0.2565
22066SOL    HW166376   5.492   7.362   4.791 -1.2944  1.4576 -1.3183
22066SOL    HW266377   5.491   7.417   4.945 -0.7665 -0.4649 -0.6022
22067SOL     OW66378   8.490   7.790   0.482 -0.1952 -0.3225  0.0294
22067SOL    HW166379   8.430   7.776   0.402  1.7934 -2.0345 -1.2657
22067SOL    HW266380   8.442   7.759   0.564 -1.4909 -0.5995 -0.7854
22068SOL     OW66381   7.462   3.558   5.898 -0.6044 -0.1526 -0.3244
22068SOL    HW166382   7.552   3.551   5.942 -0.9485  1.6680  0.7530
22068SOL    HW266383   7.395   3.504   5.950 -1.1194  2.3948  1.8548
22069SOL     OW66384   7.959   3.675   4.523 -0.0923  0.7092  0.4493
22069SOL    HW166385   7.992   3.732   4.598  3.0665  0.7199 -0.7913
22069SOL    HW266386   7.956   3.729   4.439  0.9303 -0.3986 -0.3275
22070SOL     OW66387   2.594   5.380   6.652  0.6640  0.6725 -0.0409
22070SOL    HW166388   2.550   5.328   6.725  1.3589  0.0876 -0.0277
22070SOL    HW266389   2.525   5.431   6.601 -0.0940 -0.5553 -0.2851
22071SOL     OW66390   6.617   8.638   6.847 -0.3291  0.2492 -0.3696
22071SOL    HW166391   6.632   8.570   6.920 -0.7112  0.7932  0.2266
22071SOL    HW266392   6.641   8.597   6.759 -0.8766 -0.7827 -0.0654
22072SOL     OW66393   4.190   2.498   6.076 -0.1106 -0.1311  0.0839
22072SOL    HW166394   4.251   2.560   6.126 -0.2700  0.1680 -0.0917
22072SOL    HW266395   4.242   2.416   6.049  1.4840  1.8815 -3.7290
22073SOL     OW66396   0.625   3.196   2.447  0.3739 -0.2342  0.0843
22073SOL    HW166397   0.570   3.148   2.379  0.8233  1.9601 -1.9335
22073SOL    HW266398   0.565   3.253   2.503  0.2760 -0.0944 -0.1618
22074SOL     OW66399   8.473   8.234   3.323  1.1088  0.1272 -0.1357
22074SOL    HW166400   8.565   8.250   3.289  0.5738  2.2187 -0.7335
22074SOL    HW266401   8.411   8.305   3.289 -0.3745 -0.1987  1.6629
22075SOL     OW66402   4.842   0.019   0.630 -0.5219  0.5207  0.0474
22075SOL    HW166403   4.806  -0.070   0.655  0.6236  0.0339  0.0172
22075SOL    HW266404   4.899   0.011   0.548  0.6422  1.0359  0.7780
22076SOL     OW66405   1.221   2.570   6.756 -0.6817  0.6296 -0.1251
22076SOL    HW166406   1.181   2.562   6.665 -1.2686 -2.1946  0.2691
22076SOL    HW266407   1.150   2.560   6.825 -0.0139  1.0387  0.6432
22077SOL     OW66408   4.726   4.245   5.925 -0.0010 -0.4274  0.2309
22077SOL    HW166409   4.685   4.258   5.835  0.0518  0.2371  0.3012
22077SOL    HW266410   4.669   4.184   5.980  1.2296 -2.9493 -1.1230
22078SOL     OW66411   3.339   5.684   2.962 -0.0553  0.1814 -0.2034
22078SOL    HW166412   3.339   5.783   2.973  1.7932  0.2960 -0.9475
22078SOL    HW266413   3.327   5.660   2.866  1.9213 -0.1943 -0.4027
22079SOL     OW66414   7.752   7.971   1.183 -0.3682  0.1864 -0.6515
22079SOL    HW166415   7.723   7.879   1.156 -2.5400  0.7655 -0.4857
22079SOL    HW266416   7.699   8.001   1.261  0.4775  1.5142 -0.5559
22080SOL     OW66417   7.498   7.444   6.924 -0.5370  0.7952 -0.4239
22080SOL    HW166418   7.585   7.414   6.962 -1.0394  0.4155  0.4552
22080SOL    HW266419   7.514   7.496   6.840  0.5527  0.9975 -0.1016
22081SOL     OW66420   6.690   6.668   4.772  0.1108 -0.0177 -0.0331
22081SOL    HW166421   6.738   6.586   4.803  1.3013  0.3664 -0.8101
22081SOL    HW266422   6.602   6.642   4.731 -1.2483 -0.6034  2.9259
22082SOL     OW66423   6.686   0.100   5.025 -0.0572 -0.0273  0.0027
22082SOL    HW166424   6.593   0.068   5.006  0.6990 -2.2632 -0.1853
22082SOL    HW266425   6.717   0.062   5.112  0.7368  0.5711 -0.0153
22083SOL     OW66426   6.023   8.608   6.857 -0.6924 -0.9997 -0.1550
22083SOL    HW166427   6.021   8.658   6.943 -1.1718 -0.8520 -0.2472
22083SOL    HW266428   6.096   8.539   6.860 -0.2737 -0.5519  0.1128
22084SOL     OW66429   0.699   6.122   7.063 -0.4503 -0.0243  0.9344
22084SOL    HW166430   0.755   6.205   7.066 -0.1805 -0.2163  1.6442
22084SOL    HW266431   0.756   6.044   7.036 -0.4521 -0.1573  1.3038
22085SOL     OW66432   1.831   2.526   5.787 -0.4162 -0.1620  1.2101
22085SOL    HW166433   1.761   2.588   5.822 -1.2361 -1.0132  1.0899
22085SOL    HW266434   1.830   2.441   5.840 -0.5855 -0.8310  0.1442
22086SOL     OW66435   3.974   6.658   2.441  0.0253 -0.2109  0.1202
22086SOL    HW166436   3.894   6.650   2.501 -1.1743  0.9097 -1.2334
22086SOL    HW266437   4.027   6.739   2.467  0.4944 -0.7108  0.7459
22087SOL     OW66438   3.570   4.640   8.371  0.5682 -0.3057 -0.0644
22087SOL    HW166439   3.643   4.685   8.320 -0.0697 -0.0660 -0.7760
22087SOL    HW266440   3.554   4.549   8.333  3.7864 -2.4744  3.0760
22088SOL     OW66441   6.238   7.158   4.282  0.2596  0.2040 -0.1886
22088SOL    HW166442   6.267   7.219   4.356 -1.3094  0.1709  0.4951
22088SOL    HW266443   6.241   7.063   4.313 -0.6354  0.2076 -0.0599
22089SOL     OW66444   7.037   3.869   1.439  0.1162  0.1801  0.6677
22089SOL    HW166445   7.075   3.833   1.525 -0.7958 -0.0014  1.0098
22089SOL    HW266446   7.108   3.868   1.368  1.1045  1.0469  1.6113
22090SOL     OW66447   7.758   7.691   1.121  0.4321  0.0169  0.3098
22090SOL    HW166448   7.834   7.627   1.134 -0.1611 -1.0239 -1.1076
22090SOL    HW266449   7.672   7.642   1.124 -0.1045  0.9381  0.3275
22091SOL     OW66450   3.460   4.263   3.381  0.3694 -0.0994 -0.1575
22091SOL    HW166451   3.380   4.213   3.348  0.4784  0.1716 -0.8501
22091SOL    HW266452   3.445   4.361   3.369  0.8967 -0.0610 -0.5011
22092SOL     OW66453   3.058   1.730   0.373  0.9875  0.1739 -0.0904
22092SOL    HW166454   3.127   1.735   0.301  2.5747  2.4078  1.4542
22092SOL    HW266455   3.095   1.677   0.450  0.3530  0.0799  0.1520
22093SOL     OW66456   1.399   7.861   4.817 -0.4089  0.3681 -0.3131
22093SOL    HW166457   1.423   7.950   4.857 -1.6153  1.5079 -1.9365
22093SOL    HW266458   1.320   7.823   4.865 -0.9186  0.9939 -0.6427
22094SOL     OW66459   2.718   1.742   4.401  0.0855  0.3488  0.7382
22094SOL    HW166460   2.763   1.789   4.325 -0.9557 -0.5287 -0.4807
22094SOL    HW266461   2.705   1.805   4.477 -0.1986  1.7087 -0.3918
22095SOL     OW66462   6.832   3.826   0.467  0.0166  0.4277 -0.2708
22095SOL    HW166463   6.782   3.870   0.542  0.5158 -1.6002  1.3415
22095SOL    HW266464   6.768   3.788   0.401 -0.4324  2.1064 -0.8568
22096SOL     OW66465   3.942   4.200   2.324  0.0067  0.1190 -0.0806
22096SOL    HW166466   3.876   4.269   2.293  0.0696 -0.3737 -1.3619
22096SOL    HW266467   4.008   4.243   2.385 -1.6879  0.5467  1.5567
22097SOL     OW66468   4.298   3.596   6.367 -0.1675 -0.1287  0.2524
22097SOL    HW166469   4.354   3.549   6.299  2.3655  0.4461  1.8122
22097SOL    HW266470   4.263   3.530   6.434 -0.6522 -0.3769 -0.2382
22098SOL     OW66471   7.803   4.809   1.544  0.3628 -0.4692 -0.3596
22098SOL    HW166472   7.869   4.734   1.547 -0.7934 -1.5705 -1.3857
22098SOL    HW266473   7.720   4.781   1.593 -0.2590 -0.0426 -1.1610
22099SOL     OW66474   0.898   1.206   0.407 -0.1718 -0.0412 -0.4370
22099SOL    HW166475   0.854   1.268   0.341 -1.2574 -1.6398 -1.2672
22099SOL    HW266476   0.896   1.248   0.498 -0.0838  1.5127 -1.1127
22100SOL     OW66477   8.529   6.521   0.991 -0.0903 -0.0208  0.2916
22100SOL    HW166478   8.521   6.608   0.943  2.5392  0.1999  0.1261
22100SOL    HW266479   8.512   6.535   1.089 -2.2065  0.1387 -0.0526
22101SOL     OW66480   3.040   0.389   1.404  0.2068 -0.0678  0.0154
22101SOL    HW166481   2.944   0.371   1.426 -0.6320 -0.0825 -3.1142
22101SOL    HW266482   3.062   0.348   1.316  3.4829 -1.0072  1.1338
22102SOL     OW66483   7.506   7.599   2.117  0.6751 -0.3979  0.2474
22102SOL    HW166484   7.466   7.642   2.198  2.0495  2.2921 -0.3920
22102SOL    HW266485   7.606   7.601   2.123  0.8330  0.5704 -1.8258
22103SOL     OW66486   2.229   1.304   1.828 -0.1168 -0.0116 -0.4157
22103SOL    HW166487   2.284   1.347   1.757  0.4097  0.3432  0.1962
22103SOL    HW266488   2.157   1.249   1.786 -0.1482  0.6301 -1.2159
22104SOL     OW66489   2.270   4.751   7.816  0.1112  0.0741 -0.1814
22104SOL    HW166490   2.220   4.665   7.818 -1.2342  0.8196 -0.7051
22104SOL    HW266491   2.354   4.741   7.869  0.0207 -1.5667 -0.2819
22105SOL     OW66492   7.145   5.628   0.963  0.2350  0.3157  0.2588
22105SOL    HW166493   7.160   5.703   0.898  1.7688 -1.9600 -2.1911
22105SOL    HW266494   7.058   5.583   0.942  0.0251  0.4838  0.7632
22106SOL     OW66495   7.007   1.240   0.650 -0.0011 -0.3466 -0.1103
22106SOL    HW166496   7.077   1.170   0.662 -0.3175 -0.7598 -0.6036
22106SOL    HW266497   6.958   1.253   0.736 -0.6816 -1.5592 -0.2925
22107SOL     OW66498   1.062   1.845   1.609 -0.1463  0.1798 -0.0191
22107SOL    HW166499   0.967   1.822   1.587  0.2549 -0.2803 -1.3781
22107SOL    HW266500   1.124   1.789   1.553  0.9354  0.4389  0.8779
22108SOL     OW66501   1.262   6.668   2.594  0.6107  0.5767  0.3438
22108SOL    HW166502   1.249   6.633   2.501 -0.5503  0.9589  0.3477
22108SOL    HW266503   1.356   6.699   2.605  1.3853 -1.4481 -0.0245
22109SOL     OW66504   7.377   3.358   3.786  0.0616 -0.4640 -0.2888
22109SOL    HW166505   7.400   3.327   3.694 -0.5195  0.9477 -0.9277
22109SOL    HW266506   7.446   3.423   3.818 -0.8039  0.6200 -0.5643
22110SOL     OW66507   5.971   0.254   0.733  0.0472 -0.7209 -0.1414
22110SOL    HW166508   5.941   0.342   0.697 -0.6361 -0.5116  0.9063
22110SOL    HW266509   6.071   0.254   0.744  0.1342 -0.3816 -0.9205
22111SOL     OW66510   2.537   1.123   0.129  0.7957 -0.0812 -0.3521
22111SOL    HW166511   2.466   1.177   0.175 -1.2082 -1.2164 -1.9796
22111SOL    HW266512   2.540   1.031   0.169  1.8773  0.1650  0.1709
22112SOL     OW66513   7.099   4.631   0.006  0.1295 -0.2865  0.0583
22112SOL    HW166514   7.149   4.597  -0.073 -0.7056  1.0819 -1.1071
22112SOL    HW266515   7.118   4.729   0.017  0.8590 -0.6003  2.0592
22113SOL     OW66516   5.559   8.499   3.841  0.4304 -0.2792  0.4518
22113SOL    HW166517   5.523   8.451   3.922  1.0602  0.5637  1.2565
22113SOL    HW266518   5.525   8.455   3.758 -2.2350  0.3155  1.1542
22114SOL     OW66519   5.930   7.542   0.337 -0.1736  0.4335  0.2183
22114SOL    HW166520   5.886   7.498   0.415 -1.9204  0.6715 -0.5843
22114SOL    HW266521   5.949   7.474   0.267  1.2929  0.2392  0.7637
22115SOL     OW66522   6.845   6.958   5.010 -0.1856  0.1682  0.0832
22115SOL    HW166523   6.876   6.961   5.105 -0.4409  0.8798  0.1518
22115SOL    HW266524   6.752   6.921   5.006 -0.6893  1.3544  0.2665
22116SOL     OW66525   0.514   2.437   6.804  0.3219 -0.3302  1.0433
22116SOL    HW166526   0.573   2.420   6.882  0.3762 -1.0823  0.8497
22116SOL    HW266527   0.522   2.532   6.775 -0.5263  0.2616  2.6266
22117SOL     OW66528   5.895   2.646   1.251  0.0829  0.1389  0.6208
22117SOL    HW166529   5.823   2.585   1.285 -0.0655 -0.6483 -1.0208
22117SOL    HW266530   5.889   2.653   1.152  0.6143  2.2244  0.6811
22118SOL     OW66531   1.644   1.161   4.685 -0.1126 -0.3064  0.0068
22118SOL    HW166532   1.604   1.107   4.611 -0.8677 -0.8921  0.8184
22118SOL    HW266533   1.714   1.107   4.732  0.4417  0.1034 -0.3422
22119SOL     OW66534   0.131   5.512   5.694  0.3174 -0.0718 -0.4174
22119SOL    HW166535   0.080   5.480   5.774 -1.4503  0.8736 -1.1154
22119SOL    HW266536   0.198   5.581   5.722  1.2266 -1.2636  0.4995
22120SOL     OW66537   6.105   6.289   2.302  0.3502  0.0322  0.1600
22120SOL    HW166538   6.144   6.265   2.391 -2.2512 -0.7117  1.1884
22120SOL    HW266539   6.111   6.210   2.241 -0.3765 -0.3925  0.6291
22121SOL     OW66540   1.270   0.666   3.806 -0.2952  0.2730  0.7147
22121SOL    HW166541   1.308   0.681   3.715  1.9005 -1.1060  1.3119
22121SOL    HW266542   1.264   0.754   3.854  0.6846  0.7471  0.0153
22122SOL     OW66543   8.848   3.693   1.723  0.3961 -0.4662 -0.6319
22122SOL    HW166544   8.889   3.625   1.783  0.2700 -0.3504 -0.4172
22122SOL    HW266545   8.906   3.704   1.642  0.1115 -1.2590 -0.9509
22123SOL     OW66546   3.105   0.605   0.637  0.1911  0.5927  0.0087
22123SOL    HW166547   3.030   0.567   0.583  0.6232  1.6730 -1.3981
22123SOL    HW266548   3.181   0.540   0.639 -0.2238  0.1123  0.1958
22124SOL     OW66549   1.055   0.955   3.759  0.2732 -0.1948  0.0978
22124SOL    HW166550   1.066   1.051   3.786 -2.5760  0.3479 -0.4294
22124SOL    HW266551   1.100   0.940   3.671  1.4938  0.4010  0.5937
22125SOL     OW66552   0.337   0.691   8.416 -0.0422 -0.3859  0.3652
22125SOL    HW166553   0.346   0.781   8.375 -0.1547 -0.0221  1.1126
22125SOL    HW266554   0.274   0.696   8.494 -0.7197 -1.2886 -0.1042
22126SOL     OW66555   2.920   2.988   5.162  0.7029  0.6416  0.2354
22126SOL    HW166556   2.851   3.002   5.090  0.8587 -0.9334 -0.2436
22126SOL    HW266557   2.992   3.056   5.151  0.5056  0.7059 -0.8364
22127SOL     OW66558   8.709   2.208   4.837 -0.1502 -0.2721 -0.4353
22127SOL    HW166559   8.653   2.174   4.913 -0.2134  0.3768 -0.1850
22127SOL    HW266560   8.741   2.300   4.858  1.5275 -0.8494 -0.3166
22128SOL     OW66561   4.250   0.267   0.736  0.7814 -0.0779  0.5878
22128SOL    HW166562   4.216   0.264   0.830 -1.5610 -0.0066 -0.2012
22128SOL    HW266563   4.266   0.362   0.709  1.2859 -0.0876  0.8366
22129SOL     OW66564   3.539   6.241   4.020  0.0810 -0.7374  0.1928
22129SOL    HW166565   3.621   6.290   4.049  0.1172 -1.5844  1.5915
22129SOL    HW266566   3.563   6.176   3.948  0.2115  0.5402 -0.9620
22130SOL     OW66567   8.556   5.425   4.708 -0.1297 -0.0098  0.4444
22130SOL    HW166568   8.535   5.403   4.613 -1.0874  1.0901  0.3814
22130SOL    HW266569   8.604   5.347   4.750  1.1614 -0.1517 -1.1711
22131SOL     OW66570   4.086   5.725   4.641  0.4226 -0.1991 -0.2505
22131SOL    HW166571   4.088   5.792   4.567 -0.7320 -1.6900 -1.6931
22131SOL    HW266572   4.138   5.644   4.613  1.3246 -0.1732  1.2459
22132SOL     OW66573   4.933   4.284   5.311  0.2836 -0.1339 -0.4409
22132SOL    HW166574   4.928   4.253   5.216  1.5053  1.7036 -1.1474
22132SOL    HW266575   4.854   4.343   5.331 -0.0768 -0.6763 -0.2352
22133SOL     OW66576   3.311   3.835   7.239 -0.2834  0.2098 -0.0843
22133SOL    HW166577   3.341   3.764   7.176  1.8726 -1.8437  2.9671
22133SOL    HW266578   3.387   3.862   7.297 -2.4355  0.8176  2.6646
22134SOL     OW66579   3.173   3.200   3.454  0.0346  0.0022 -0.2949
22134SOL    HW166580   3.263   3.187   3.497  0.2505  0.2728 -0.6587
22134SOL    HW266581   3.134   3.111   3.431 -0.1004 -0.1487  0.4893
22135SOL     OW66582   3.030   7.394   5.607  0.0830 -0.1192  0.0242
22135SOL    HW166583   2.951   7.398   5.668  0.7350  1.1954  0.8139
22135SOL    HW266584   2.998   7.391   5.512 -0.9481 -2.4511  0.3599
22136SOL     OW66585   5.902   0.880   3.228  0.2741 -0.5220 -0.0015
22136SOL    HW166586   5.841   0.801   3.242 -0.5933 -0.5614 -3.2525
22136SOL    HW266587   5.852   0.964   3.250  0.0982 -0.7074  0.3218
22137SOL     OW66588   6.945   7.658   5.489 -0.4375 -0.4234 -0.1662
22137SOL    HW166589   7.014   7.595   5.453  0.1603  0.8709 -1.4160
22137SOL    HW266590   6.861   7.648   5.436 -0.0626  0.3885 -0.9498
22138SOL     OW66591   8.646   6.699   6.151  0.4952 -0.6329  0.1148
22138SOL    HW166592   8.652   6.797   6.172 -0.4439 -0.5716  0.1264
22138SOL    HW266593   8.636   6.647   6.236 -0.5716 -0.6034  0.0220
22139SOL     OW66594   8.479   2.496   5.608  0.3381  0.3373 -0.9475
22139SOL    HW166595   8.383   2.498   5.635  0.4064 -0.3258 -0.6423
22139SOL    HW266596   8.533   2.451   5.679  1.0413  1.6275 -0.6326
22140SOL     OW66597   5.001   5.987   7.635  0.0042 -0.1852  0.4057
22140SOL    HW166598   5.040   5.989   7.727 -0.0654 -0.8506  0.4561
22140SOL    HW266599   4.909   5.947   7.638 -0.4046  0.7196  0.1869
22141SOL     OW66600   8.561   0.373   7.480 -0.2874 -0.3109  0.2707
22141SOL    HW166601   8.507   0.395   7.398 -0.8617 -1.7430  0.2363
22141SOL    HW266602   8.499   0.359   7.557  0.0134 -1.7194  0.2908
22142SOL     OW66603   1.685   4.271   1.653  0.2716  0.0076 -0.2263
22142SOL    HW166604   1.718   4.178   1.639  0.2294  0.1753 -1.6713
22142SOL    HW266605   1.585   4.272   1.655  0.2804 -0.2583  2.2192
22143SOL     OW66606   6.143   6.635   7.965 -0.5211  0.2861  0.0110
22143SOL    HW166607   6.137   6.576   7.885  0.5550  0.4893 -0.2357
22143SOL    HW266608   6.105   6.725   7.942 -0.7345  0.1728 -0.0875
22144SOL     OW66609   0.828   6.130   3.581  0.4057  0.0681 -0.1960
22144SOL    HW166610   0.855   6.071   3.658  0.3937 -0.1308 -0.3414
22144SOL    HW266611   0.764   6.199   3.613 -0.2738 -0.5449 -0.1921
22145SOL     OW66612   1.060   2.999   4.775 -0.2089 -0.2807 -0.0435
22145SOL    HW166613   1.086   3.022   4.681 -3.2009 -0.5720 -1.0281
22145SOL    HW266614   0.961   2.988   4.781  0.0074 -1.5987  2.8900
22146SOL     OW66615   2.314   4.458   6.626 -0.1046 -0.2676  0.0264
22146SOL    HW166616   2.340   4.551   6.602 -1.8829  0.0022 -1.0682
22146SOL    HW266617   2.396   4.405   6.647  1.0006  1.3312 -0.0473
22147SOL     OW66618   1.780   7.104   6.287 -0.0521  1.3181 -0.2889
22147SOL    HW166619   1.863   7.160   6.281 -0.4121  1.9910  0.8123
22147SOL    HW266620   1.750   7.099   6.382  0.4485 -1.4710 -0.1881
22148SOL     OW66621   7.339   5.057   8.666  0.3962 -0.2688 -0.2663
22148SOL    HW166622   7.269   4.995   8.631 -0.6166 -0.5207  2.0276
22148SOL    HW266623   7.336   5.143   8.614 -1.4570 -0.3737 -0.4095
22149SOL     OW66624   4.046   1.113   8.623 -0.0750 -0.5721  0.8533
22149SOL    HW166625   4.062   1.055   8.543  0.6421 -0.7397  1.1118
22149SOL    HW266626   4.093   1.074   8.702  0.1319  0.1780  1.1049
22150SOL     OW66627   2.062   0.500   7.337  0.0125 -0.2905 -0.0215
22150SOL    HW166628   2.084   0.595   7.361  1.1214 -0.6065  0.2524
22150SOL    HW266629   2.010   0.458   7.411 -1.6229  0.4675 -0.6825
22151SOL     OW66630   3.424   3.547   6.326 -0.0422  0.0102 -0.2007
22151SOL    HW166631   3.348   3.596   6.283 -0.6269 -0.2671  0.4967
22151SOL    HW266632   3.389   3.493   6.403  0.7335 -0.8284 -0.4350
22152SOL     OW66633   0.038   8.239   1.688  0.4646  0.2650  0.0999
22152SOL    HW166634  -0.027   8.259   1.615 -2.2366  0.9930  2.5055
22152SOL    HW266635   0.104   8.313   1.696 -0.4109  1.1148 -0.3722
22153SOL     OW66636   0.530   1.480   2.713  0.0054  0.1425 -0.6423
22153SOL    HW166637   0.521   1.514   2.619  1.4441  0.7878 -0.5744
22153SOL    HW266638   0.618   1.510   2.751 -0.5927 -0.0179  0.9513
22154SOL     OW66639   3.763   6.720   6.649  0.2131 -0.0587  0.9141
22154SOL    HW166640   3.697   6.772   6.595  0.5198 -1.3527 -0.8191
22154SOL    HW266641   3.718   6.680   6.728 -0.9942 -0.5435  0.0090
22155SOL     OW66642   0.603   8.580   7.922  0.0064 -0.5512 -0.4721
22155SOL    HW166643   0.702   8.580   7.938 -0.0740 -0.5149  0.0330
22155SOL    HW266644   0.557   8.526   7.992 -0.2574 -1.3187 -1.2276
22156SOL     OW66645   8.040   5.894   6.104  0.4381  0.2729 -0.5241
22156SOL    HW166646   7.956   5.864   6.058 -0.3390  1.0054  0.3666
22156SOL    HW266647   8.117   5.840   6.071 -0.4358 -0.6455 -1.1239
22157SOL     OW66648   2.948   0.004   4.200  0.0119 -0.1740 -0.1421
22157SOL    HW166649   3.013   0.077   4.218 -0.4538 -0.1594  1.7287
22157SOL    HW266650   2.990  -0.084   4.224 -0.3612 -0.2373  0.3028
22158SOL     OW66651   0.045   8.320   5.754 -0.0132 -0.4939  0.0450
22158SOL    HW166652  -0.028   8.301   5.688  0.1665  1.6176 -0.8260
22158SOL    HW266653   0.005   8.326   5.846 -0.6096 -1.3089 -0.1504
22159SOL     OW66654   5.736   3.853   0.846  0.1771 -0.2102  0.0427
22159SOL    HW166655   5.800   3.791   0.801 -0.0483 -1.1319  0.9620
22159SOL    HW266656   5.786   3.929   0.888  0.7600 -1.2364  1.2594
22160SOL     OW66657   3.262   0.254   7.695  0.2000 -0.2091 -0.0340
22160SOL    HW166658   3.205   0.334   7.710 -0.6707 -1.0526  1.4220
22160SOL    HW266659   3.207   0.171   7.707  1.7255 -1.0631  1.7253
22161SOL     OW66660   8.568   6.633   7.075  0.1676 -0.0924  0.6051
22161SOL    HW166661   8.624   6.601   7.151 -1.6612 -3.5475  0.7030
22161SOL    HW266662   8.474   6.647   7.107 -0.4083 -0.5874 -0.8001
22162SOL     OW66663   2.031   5.948   0.575 -0.0028 -0.3711  0.1749
22162SOL    HW166664   2.108   5.967   0.514  0.2974 -1.9001  0.0401
22162SOL    HW266665   2.063   5.944   0.670  0.1301 -1.2310  0.0961
22163SOL     OW66666   4.530   0.433   0.831 -0.5928  0.2110  0.4584
22163SOL    HW166667   4.444   0.453   0.785 -0.4272  1.1443  0.5335
22163SOL    HW266668   4.513   0.417   0.928 -1.1271 -3.1271 -0.0845
22164SOL     OW66669   0.628   0.872   1.158  0.2021  0.6257 -0.7215
22164SOL    HW166670   0.633   0.821   1.244 -0.7594  3.5153  1.1777
22164SOL    HW266671   0.532   0.883   1.132  0.3277  2.1413 -0.6149
22165SOL     OW66672   1.409   7.933   1.217 -0.0622  0.3370  0.5364
22165SOL    HW166673   1.414   7.968   1.124 -0.5129  1.6691  0.9939
22165SOL    HW266674   1.345   7.856   1.221 -0.5638  0.7138 -0.1256
22166SOL     OW66675   8.509   7.603   1.441 -0.1544  0.2709  0.7259
22166SOL    HW166676   8.571   7.672   1.479 -0.0012  0.2102  0.5831
22166SOL    HW266677   8.420   7.610   1.487 -1.0819  2.4650 -1.1829
22167SOL     OW66678   6.595   4.007   2.490 -0.3387 -0.5635 -0.3906
22167SOL    HW166679   6.512   4.036   2.538  1.5330  1.3252  1.9621
22167SOL    HW266680   6.673   4.013   2.552  1.9697  0.0557 -3.1614
22168SOL     OW66681   7.220   5.744   4.795  0.2278  0.4478 -0.2795
22168SOL    HW166682   7.225   5.650   4.829 -0.6580  1.1149  1.8916
22168SOL    HW266683   7.134   5.757   4.746 -0.4194  0.4972  0.8189
22169SOL     OW66684   7.517   0.756   2.771  0.7018 -0.0684  0.2278
22169SOL    HW166685   7.421   0.732   2.787  0.4102  1.4211  0.8233
22169SOL    HW266686   7.547   0.715   2.685 -1.0748  1.0730 -0.9962
22170SOL     OW66687   2.731   8.296   7.294 -0.0293 -0.1782  0.1102
22170SOL    HW166688   2.821   8.259   7.272 -0.9058 -2.2050 -0.3822
22170SOL    HW266689   2.730   8.329   7.388  1.2085 -0.1774  0.1358
22171SOL     OW66690   8.154   5.858   1.532 -0.0490 -0.7822 -0.9412
22171SOL    HW166691   8.080   5.834   1.596  0.7746 -0.5689  0.1271
22171SOL    HW266692   8.140   5.809   1.446  0.4821 -3.6302  0.4670
22172SOL     OW66693   5.140   7.429   0.591  0.0770 -0.2047  0.0129
22172SOL    HW166694   5.063   7.367   0.579 -0.4976  0.3983  0.4717
22172SOL    HW266695   5.107   7.523   0.597  1.0402  0.3030 -1.9782
22173SOL     OW66696   4.796   8.411   2.940  0.0326  0.1152  0.3854
22173SOL    HW166697   4.869   8.474   2.968  0.8836  0.3337 -2.1176
22173SOL    HW266698   4.711   8.463   2.928 -0.5167 -0.0681  2.8646
22174SOL     OW66699   5.217   6.021   8.492  0.3856  0.1936 -0.1473
22174SOL    HW166700   5.240   6.110   8.531 -0.6510  0.0470  0.8299
22174SOL    HW266701   5.243   6.020   8.395  0.4055  1.5594 -0.1795
22175SOL     OW66702   6.302   1.043   6.059 -0.8960 -0.3897 -0.3468
22175SOL    HW166703   6.321   1.107   5.985 -1.2875  0.2560  0.1046
22175SOL    HW266704   6.359   0.961   6.048  0.8127  0.6973 -0.0402
22176SOL     OW66705   8.022   8.245   8.799  0.1511  0.3718  0.1668
22176SOL    HW166706   8.094   8.276   8.737  0.9284  0.8530  1.2973
22176SOL    HW266707   8.042   8.152   8.829 -0.0703  0.2502 -0.0533
22177SOL     OW66708   5.495   7.368   5.134 -0.6811  0.0377 -0.2172
22177SOL    HW166709   5.508   7.436   5.206  1.0237 -1.4954  1.0079
22177SOL    HW266710   5.409   7.318   5.150 -0.7175  0.2561  0.2844
22178SOL     OW66711   7.349   4.212   7.203  0.0710  0.1064  0.0115
22178SOL    HW166712   7.354   4.268   7.120  0.8053  1.6259  1.0186
22178SOL    HW266713   7.435   4.221   7.254  0.3702 -2.2915  0.0432
22179SOL     OW66714   2.766   5.870   5.497  0.2068 -0.4096 -0.0052
22179SOL    HW166715   2.700   5.924   5.549  0.6162 -0.7751  0.8998
22179SOL    HW266716   2.858   5.903   5.515  0.3097 -0.0164 -1.1313
22180SOL     OW66717   1.734   4.233   8.333  0.2788 -0.0649 -0.4076
22180SOL    HW166718   1.705   4.231   8.429 -0.9172  0.2726 -0.7565
22180SOL    HW266719   1.783   4.319   8.316 -1.2567  0.8150 -0.5765
22181SOL     OW66720   1.608   8.290   5.839  0.0051  0.3199 -0.2567
22181SOL    HW166721   1.620   8.192   5.824 -0.2389  0.3569 -0.7076
22181SOL    HW266722   1.514   8.316   5.818  0.5714  0.9999 -2.2058
22182SOL     OW66723   4.062   3.830   0.534  0.2349 -0.3577  0.4247
22182SOL    HW166724   4.134   3.900   0.533 -0.5004  0.4232  0.9387
22182SOL    HW266725   3.982   3.865   0.582 -0.1251 -1.5989  0.7571
22183SOL     OW66726   4.203   0.387   5.622 -0.3532 -0.3747 -0.2627
22183SOL    HW166727   4.185   0.288   5.616 -0.5567 -0.3119 -0.7128
22183SOL    HW266728   4.267   0.404   5.697  0.2922 -0.9395 -0.6633
22184SOL     OW66729   2.864   0.659   5.540 -0.2208  0.0469 -0.3060
22184SOL    HW166730   2.940   0.594   5.547 -0.8360 -0.9304 -1.9274
22184SOL    HW266731   2.843   0.697   5.630  0.4073 -1.7221  0.6295
22185SOL     OW66732   6.045   1.469   3.754  0.0261  0.2484 -0.3519
22185SOL    HW166733   6.006   1.465   3.663  0.5038  2.1651 -0.6908
22185SOL    HW266734   6.142   1.443   3.751 -0.1598 -0.4957 -0.2217
22186SOL     OW66735   6.091   0.490   2.118  0.0676  0.2765 -0.2119
22186SOL    HW166736   6.186   0.513   2.135  0.3078 -1.2300  0.6811
22186SOL    HW266737   6.033   0.568   2.140  0.9431  0.5344  1.2836
22187SOL     OW66738   4.291   4.538   2.019 -0.2329  0.2097  0.3122
22187SOL    HW166739   4.334   4.450   2.042  0.1058 -0.1364 -1.4665
22187SOL    HW266740   4.200   4.543   2.061 -0.7269 -1.5032 -0.4704
22188SOL     OW66741   4.434   6.055   6.908  0.0938 -0.0941 -0.3940
22188SOL    HW166742   4.447   6.109   6.825  1.8055  0.5747  0.2540
22188SOL    HW266743   4.347   6.081   6.951 -0.3462  0.2469 -1.4522
22189SOL     OW66744   5.811   2.018   3.653 -0.3887 -0.2524 -0.0043
22189SOL    HW166745   5.715   1.991   3.646 -0.5452  0.1461  0.6048
22189SOL    HW266746   5.851   1.977   3.734 -0.5701  1.1535  0.8163
22190SOL     OW66747   1.650   5.769   3.310  0.4904  0.2791  0.4011
22190SOL    HW166748   1.717   5.701   3.280  0.5747  1.4201 -2.2201
22190SOL    HW266749   1.604   5.809   3.231 -1.8818  0.9996  2.0263
22191SOL     OW66750   0.844   2.481   5.563  0.0449 -0.2281 -0.1481
22191SOL    HW166751   0.841   2.385   5.593 -1.6897  0.0938  0.8544
22191SOL    HW266752   0.751   2.518   5.564  0.2954  0.7026 -3.1406
22192SOL     OW66753   6.784   5.957   4.893 -0.3971 -0.4155 -0.2699
22192SOL    HW166754   6.879   5.983   4.874 -0.6784 -0.2487 -1.5357
22192SOL    HW266755   6.726   5.984   4.816 -1.2418 -1.8254 -0.1574
22193SOL     OW66756   3.571   7.870   2.646 -0.5818 -0.0815 -0.4538
22193SOL    HW166757   3.597   7.966   2.661  0.0041 -0.2654 -0.2589
22193SOL    HW266758   3.650   7.811   2.665 -1.4347 -0.7436  1.2401
22194SOL     OW66759   8.361   6.560   5.498  0.0602 -0.0030  0.0650
22194SOL    HW166760   8.430   6.593   5.433  0.9534 -2.7158 -0.4952
22194SOL    HW266761   8.343   6.631   5.566  2.1944  1.4055 -0.7233
22195SOL     OW66762   2.252   8.363   6.045 -0.3628 -0.0902  0.4120
22195SOL    HW166763   2.174   8.380   6.104 -0.1952 -0.5375  0.7682
22195SOL    HW266764   2.230   8.288   5.981  0.3230 -1.3384  1.5931
22196SOL     OW66765   7.753   6.468   7.298  0.4864  0.0116  0.3498
22196SOL    HW166766   7.829   6.496   7.357  0.0181  2.4711 -0.1199
22196SOL    HW266767   7.667   6.474   7.349  0.3437 -0.2666  0.1418
22197SOL     OW66768   6.774   8.042   3.748  0.0545 -0.0110 -0.2396
22197SOL    HW166769   6.834   7.964   3.763  0.0977 -0.2518 -1.5600
22197SOL    HW266770   6.706   8.019   3.678  0.5867  1.3805 -1.2664
22198SOL     OW66771   4.004   0.573   3.616 -0.4310  0.3335 -0.3024
22198SOL    HW166772   4.020   0.622   3.702 -1.3245  2.7718 -1.4112
22198SOL    HW266773   3.905   0.563   3.602 -0.2791 -0.5619 -0.8005
22199SOL     OW66774   4.361   3.891   2.208 -0.0103  0.0721  0.0035
22199SOL    HW166775   4.390   3.809   2.159  1.6172  0.2241  0.6654
22199SOL    HW266776   4.374   3.878   2.306  0.1708  1.0713  0.1236
22200SOL     OW66777   5.802   8.070   2.600  0.0208 -0.2312  0.4518
22200SOL    HW166778   5.815   8.007   2.677 -0.3704 -1.1712 -0.2394
22200SOL    HW266779   5.705   8.094   2.592  0.1964  0.7022  0.8760
22201SOL     OW66780   6.773   4.103   3.030 -0.6064 -0.4121 -0.2018
22201SOL    HW166781   6.688   4.051   3.038 -0.7226 -0.5518 -1.9141
22201SOL    HW266782   6.850   4.040   3.015 -0.6008 -0.1747 -1.2672
22202SOL     OW66783   0.272   4.010   6.981 -0.3714  0.0893 -0.3252
22202SOL    HW166784   0.276   3.959   6.895  0.7532  0.4882 -0.5287
22202SOL    HW266785   0.274   3.946   7.058 -0.2515 -0.2231 -0.5842
22203SOL     OW66786   1.357   8.383   8.776  0.2876 -0.7307 -0.3211
22203SOL    HW166787   1.289   8.402   8.847  2.5401  0.5773  1.6312
22203SOL    HW266788   1.443   8.428   8.800  2.2796 -3.3995 -1.9702
22204SOL     OW66789   4.898   1.014   3.294  0.2896 -0.5903  0.3032
22204SOL    HW166790   4.889   1.087   3.226 -0.8104 -0.5711  0.4398
22204SOL    HW266791   4.912   0.927   3.248  0.4528 -0.4526  0.0895
22205SOL     OW66792   1.623   8.268   0.869  0.4280  0.5921 -0.8329
22205SOL    HW166793   1.614   8.289   0.966  1.9423  0.8974 -0.7368
22205SOL    HW266794   1.564   8.329   0.816 -0.5620  0.2919 -0.1187
22206SOL     OW66795   3.313   8.041   5.306 -0.2444 -0.2861  0.2720
22206SOL    HW166796   3.312   8.048   5.406  0.6656  1.1942  0.2144
22206SOL    HW266797   3.396   7.995   5.276 -1.1872 -2.0558  0.2068
22207SOL     OW66798   1.812   5.210   0.615 -0.2145 -0.0432  0.5150
22207SOL    HW166799   1.814   5.125   0.562  0.7300 -0.0289  0.5174
22207SOL    HW266800   1.772   5.192   0.705  0.0367 -0.5050  0.5375
22208SOL     OW66801   3.724   7.792   5.738  0.8356  0.2234  0.3479
22208SOL    HW166802   3.692   7.708   5.694  0.7300 -0.0455  0.9364
22208SOL    HW266803   3.716   7.868   5.673  1.2314 -0.2706 -0.2927
22209SOL     OW66804   2.584   4.640   3.614  0.1274  0.1414 -0.1345
22209SOL    HW166805   2.663   4.646   3.554 -1.6592  0.0173 -2.6281
22209SOL    HW266806   2.501   4.630   3.560 -1.4892 -1.4743  2.4013
22210SOL     OW66807   6.680   1.129   4.401  0.0257  0.3252  0.3592
22210SOL    HW166808   6.696   1.216   4.354 -0.2344  0.0926 -0.1602
22210SOL    HW266809   6.660   1.058   4.334 -1.1659  0.1658  0.8642
22211SOL     OW66810   0.112   7.044   1.694  0.0367  0.3018 -0.1833
22211SOL    HW166811   0.207   7.015   1.677  0.3818 -1.0613  3.2970
22211SOL    HW266812   0.107   7.090   1.782 -2.1527  2.9804 -1.5681
22212SOL     OW66813   2.956   2.586   4.024 -0.3344 -0.2185 -0.1526
22212SOL    HW166814   3.048   2.569   4.060 -0.0668  0.0573 -0.7010
22212SOL    HW266815   2.961   2.654   3.951 -1.2755  1.6374  1.4132
22213SOL     OW66816   2.091   6.226   7.137  0.0757  0.1161  0.8837
22213SOL    HW166817   2.097   6.284   7.218 -0.6518  2.1611 -0.4534
22213SOL    HW266818   2.173   6.238   7.081 -1.3709  2.3110 -0.9067
22214SOL     OW66819   4.005   4.615   4.902 -0.3574  0.3523  0.0395
22214SOL    HW166820   4.075   4.685   4.890 -0.3877  0.5603  0.9428
22214SOL    HW266821   3.998   4.558   4.820  0.9256  0.2672 -0.0198
22215SOL     OW66822   2.235   2.918   1.277 -0.1858 -0.4652  0.2531
22215SOL    HW166823   2.262   3.013   1.289  1.1840 -0.7461 -0.3138
22215SOL    HW266824   2.239   2.871   1.365 -1.7023  0.1835  0.6848
22216SOL     OW66825   5.814   6.318   4.371  0.2380 -0.0695 -0.5347
22216SOL    HW166826   5.865   6.399   4.399  0.1828 -0.2196  0.0186
22216SOL    HW266827   5.723   6.320   4.413 -0.6547  0.7651 -2.4100
22217SOL     OW66828   6.352   6.023   0.322  0.2097  0.0204  0.3223
22217SOL    HW166829   6.323   6.091   0.255  0.5528 -0.6246 -0.5064
22217SOL    HW266830   6.274   5.967   0.350  0.2415 -0.3212 -0.2638
22218SOL     OW66831   5.897   0.524   0.625 -0.6273 -0.0716  0.3601
22218SOL    HW166832   5.925   0.611   0.666 -0.2767  0.7143 -1.4578
22218SOL    HW266833   5.798   0.519   0.621 -0.6451  0.4549  0.0727
22219SOL     OW66834   4.227   4.313   1.777 -0.2685  0.1611  0.2705
22219SOL    HW166835   4.278   4.292   1.861  0.8690 -1.0194 -0.6801
22219SOL    HW266836   4.143   4.258   1.775 -0.7972  0.9077  1.0689
22220SOL     OW66837   5.385   0.193   4.016  0.0616  0.5663 -0.0584
22220SOL    HW166838   5.421   0.101   4.027  1.8478  1.2432  0.0610
22220SOL    HW266839   5.363   0.209   3.920  0.8506  0.3843 -0.2760
22221SOL     OW66840   2.401   1.441   1.142 -0.3595 -0.3364 -0.0060
22221SOL    HW166841   2.498   1.466   1.135  0.3691 -2.3102  1.8379
22221SOL    HW266842   2.346   1.507   1.092  1.9037  1.0024 -0.8987
22222SOL     OW66843   7.400   5.458   7.898 -1.0106 -0.2274  0.4559
22222SOL    HW166844   7.474   5.407   7.942 -0.2992 -0.9864 -1.5521
22222SOL    HW266845   7.421   5.556   7.902  0.5134 -0.4669 -0.7479
22223SOL     OW66846   0.945   1.383   6.184  0.4500 -0.4701 -0.3880
22223SOL    HW166847   0.901   1.298   6.154  1.4648 -0.6960 -1.3079
22223SOL    HW266848   1.041   1.365   6.207  0.6013  0.3768 -0.3283
22224SOL     OW66849   3.436   8.611   1.426 -0.0208  0.7745 -0.3468
22224SOL    HW166850   3.455   8.550   1.349 -1.7379 -0.7971  0.3883
22224SOL    HW266851   3.494   8.692   1.420  2.1598 -0.7795 -1.5135
22225SOL     OW66852   6.443   6.255   0.923  0.0649 -0.1844  0.2380
22225SOL    HW166853   6.371   6.235   0.858  0.8327  0.6535 -0.9164
22225SOL    HW266854   6.485   6.343   0.900  1.2910 -0.5366  1.0327
22226SOL     OW66855   2.206   6.125   1.697  0.1947  0.0423  0.1487
22226SOL    HW166856   2.236   6.178   1.618  0.1231 -0.8197 -0.4593
22226SOL    HW266857   2.155   6.045   1.667 -0.5944  0.1671  1.0973
22227SOL     OW66858   4.279   7.358   0.800  0.1616  0.5464  0.5028
22227SOL    HW166859   4.321   7.421   0.866  0.4476  1.1708 -0.2595
22227SOL    HW266860   4.309   7.382   0.708  0.1932 -0.6568  0.1918
22228SOL     OW66861   7.938   0.100   6.500  0.0939  0.3063 -0.2960
22228SOL    HW166862   7.870   0.027   6.493  1.3941 -0.9764  0.0123
22228SOL    HW266863   7.951   0.142   6.410 -0.5131  0.0338 -0.5173
22229SOL     OW66864   4.571   2.604   4.728 -0.2043 -0.2659  0.2692
22229SOL    HW166865   4.563   2.680   4.663  0.4714  0.6311  1.2066
22229SOL    HW266866   4.507   2.532   4.702 -1.0336  0.7152 -0.5186
22230SOL     OW66867   8.372   4.565   8.845  0.7243 -0.1800  0.5190
22230SOL    HW166868   8.319   4.598   8.924  0.5530 -0.6890  0.6178
22230SOL    HW266869   8.352   4.469   8.829  0.1491  0.1096 -0.6342
22231SOL     OW66870   2.126   1.015   5.357 -0.2017 -0.2703 -0.8116
22231SOL    HW166871   2.129   0.915   5.351  0.2417 -0.2842 -0.3905
22231SOL    HW266872   2.087   1.052   5.273  1.3206 -0.7077 -1.7480
22232SOL     OW66873   0.002   0.253   4.036 -0.0011 -0.2237  0.0493
22232SOL    HW166874   0.003   0.153   4.030 -0.4633 -0.3322  1.3436
22232SOL    HW266875   0.051   0.282   4.118 -1.8362  0.4564  0.9620
22233SOL     OW66876   8.210   0.645   8.445  0.3558 -0.3658  0.1644
22233SOL    HW166877   8.148   0.574   8.476  1.9415 -1.2693  1.4040
22233SOL    HW266878   8.226   0.635   8.346  0.2575 -1.5022  0.2508
22234SOL     OW66879   2.111   1.585   8.381 -0.6739  0.4502  0.1349
22234SOL    HW166880   2.051   1.636   8.320 -0.2260 -0.3796 -1.0551
22234SOL    HW266881   2.206   1.603   8.356 -0.4136  1.2333  1.5656
22235SOL     OW66882   2.579   8.108   4.446  0.0158  0.0773  0.1451
22235SOL    HW166883   2.603   8.115   4.543  1.3791  0.7947 -0.2252
22235SOL    HW266884   2.567   8.200   4.409  1.1824 -0.1327 -0.7735
22236SOL     OW66885   3.120   6.131   5.468 -0.1310  0.1381 -0.2888
22236SOL    HW166886   3.085   6.077   5.392 -0.4890  1.5519 -1.1550
22236SOL    HW266887   3.215   6.156   5.451 -0.0887  0.1191 -0.0835
22237SOL     OW66888   4.677   8.532   4.220  0.2645  0.1877 -0.3112
22237SOL    HW166889   4.736   8.583   4.158 -0.0917  0.4160 -0.4627
22237SOL    HW266890   4.647   8.592   4.294 -0.0256  0.1520 -0.4024
22238SOL     OW66891   1.406   0.766   3.591  0.6681  0.5697 -0.0653
22238SOL    HW166892   1.438   0.722   3.507  1.2852 -0.1959  0.5524
22238SOL    HW266893   1.410   0.865   3.580 -0.3894  0.5070 -1.3497
22239SOL     OW66894   0.015   6.153   1.106  0.2144 -0.4213 -0.2175
22239SOL    HW166895  -0.011   6.233   1.159  0.2639  1.5320 -2.9110
22239SOL    HW266896  -0.066   6.116   1.061  0.5182 -0.5815 -0.6332
22240SOL     OW66897   5.158   8.585   0.692 -0.7986 -0.0427 -0.4550
22240SOL    HW166898   5.160   8.674   0.736  1.1566 -0.4917  0.5134
22240SOL    HW266899   5.171   8.514   0.761  0.8210 -0.8709 -1.5428
22241SOL     OW66900   3.339   5.473   7.802 -0.1044 -0.0786 -0.1321
22241SOL    HW166901   3.415   5.416   7.830  1.2546  0.8241 -1.7809
22241SOL    HW266902   3.257   5.417   7.788 -0.7380 -0.7106  4.5761
22242SOL     OW66903   3.685   5.211   2.385  0.9916  0.0096 -0.0935
22242SOL    HW166904   3.741   5.138   2.424 -0.3276 -0.6296  0.6702
22242SOL    HW266905   3.638   5.178   2.304 -1.0430 -0.6427  1.2744
22243SOL     OW66906   0.580   5.736   0.339 -0.1709 -0.1861 -0.3945
22243SOL    HW166907   0.626   5.648   0.324 -3.2073 -1.7892 -1.2006
22243SOL    HW266908   0.562   5.779   0.251 -0.4705  0.2458 -0.1244
22244SOL     OW66909   4.539   0.489   6.171  0.2312 -0.1947  0.4489
22244SOL    HW166910   4.440   0.476   6.161  0.5989 -2.4935 -0.8354
22244SOL    HW266911   4.578   0.412   6.221  1.6187 -0.4470 -0.9455
22245SOL     OW66912   7.375   0.437   8.616 -0.5775  0.3005  0.2251
22245SOL    HW166913   7.354   0.513   8.554 -0.9408 -0.0254 -0.0573
22245SOL    HW266914   7.365   0.467   8.711  1.1033  1.1327  0.1747
22246SOL     OW66915   0.100   4.117   7.359  0.2637  0.0017  0.3038
22246SOL    HW166916   0.063   4.155   7.443 -0.9366  0.0489 -0.2323
22246SOL    HW266917   0.087   4.182   7.284 -1.6350 -1.3293 -0.5832
22247SOL     OW66918   0.336   1.810   0.067  0.0523  0.0132 -0.3777
22247SOL    HW166919   0.248   1.763   0.057 -0.5071  1.0042 -0.2196
22247SOL    HW266920   0.339   1.858   0.154  0.8581 -0.2117 -0.2681
22248SOL     OW66921   7.415   5.818   0.495  0.1510  0.2498  0.1759
22248SOL    HW166922   7.478   5.871   0.551 -1.1934  0.5120  1.4993
22248SOL    HW266923   7.449   5.724   0.486  0.6146  0.3267  1.0425
22249SOL     OW66924   5.821   8.361   7.974 -0.0737  0.1610  0.3147
22249SOL    HW166925   5.770   8.371   8.059 -1.8004  1.6822 -0.8360
22249SOL    HW266926   5.758   8.358   7.897  1.4511 -1.0874 -0.9644
22250SOL     OW66927   5.759   4.812   7.521  0.0099 -0.1215 -0.0613
22250SOL    HW166928   5.731   4.897   7.567 -0.6285 -0.1107 -0.4576
22250SOL    HW266929   5.689   4.786   7.455  0.8335 -0.2510 -0.8907
22251SOL     OW66930   6.508   1.762   5.738 -0.1641 -0.4705  0.5676
22251SOL    HW166931   6.586   1.715   5.697  0.5769  1.1902 -0.0062
22251SOL    HW266932   6.428   1.751   5.679 -0.3646 -2.0577  1.0887
22252SOL     OW66933   0.737   5.852   4.886 -0.0776 -0.3074 -0.1809
22252SOL    HW166934   0.741   5.833   4.788 -0.7570 -0.1205 -0.2540
22252SOL    HW266935   0.679   5.932   4.902  2.2612  1.4232  0.1688
22253SOL     OW66936   8.089   7.191   6.824 -0.0007  0.0954 -0.0180
22253SOL    HW166937   8.034   7.115   6.792 -1.1660  0.0932  1.8325
22253SOL    HW266938   8.046   7.277   6.797 -0.0549  0.0947  0.0656
22254SOL     OW66939   6.958   7.725   0.809 -0.3255 -0.0827  0.0059
22254SOL    HW166940   6.988   7.631   0.790  0.8982  0.1514  0.6335
22254SOL    HW266941   7.039   7.784   0.819 -1.0486  0.8086  0.7480
22255SOL     OW66942   3.299   5.218   4.116  0.7025 -0.3537 -0.7432
22255SOL    HW166943   3.207   5.257   4.117 -0.0240 -2.0028 -0.2418
22255SOL    HW266944   3.366   5.291   4.129 -0.5362  0.8280 -0.7585
22256SOL     OW66945   8.672   0.072   6.045 -0.0394 -0.2586  0.6219
22256SOL    HW166946   8.709   0.154   6.088  0.9257 -0.2747 -0.1483
22256SOL    HW266947   8.597   0.036   6.101 -0.4928  1.1475  0.9504
22257SOL     OW66948   3.979   4.456   7.461 -0.2051 -0.5966 -0.5570
22257SOL    HW166949   4.064   4.403   7.466 -0.6526 -1.4089 -1.2591
22257SOL    HW266950   3.965   4.505   7.547  1.6089  0.5752 -0.8887
22258SOL     OW66951   0.605   3.564   5.267 -0.2723 -0.2632  0.2098
22258SOL    HW166952   0.700   3.535   5.281 -0.5677 -1.1784  0.3684
22258SOL    HW266953   0.553   3.490   5.225 -0.7710  0.4640 -0.4861
22259SOL     OW66954   8.031   8.392   5.140  0.2696  0.4410 -0.4498
22259SOL    HW166955   8.066   8.298   5.133  0.6808  0.4303  1.3340
22259SOL    HW266956   8.094   8.454   5.094 -0.0263 -0.1478 -1.6836
22260SOL     OW66957   5.208   6.671   0.380  0.0384  0.2989  0.0334
22260SOL    HW166958   5.194   6.769   0.395 -0.8789 -0.0022  1.3314
22260SOL    HW266959   5.179   6.620   0.462  1.3418 -0.9984 -0.2674
22261SOL     OW66960   3.282   5.236   8.057  0.0263  0.5310 -0.3937
22261SOL    HW166961   3.334   5.222   7.973  0.0198 -0.2588 -0.2734
22261SOL    HW266962   3.343   5.229   8.136  0.1609  1.9447 -0.3442
22262SOL     OW66963   1.838   2.900   6.629  0.0171  0.2135  0.4328
22262SOL    HW166964   1.791   2.987   6.644 -2.1553 -0.5486 -1.4208
22262SOL    HW266965   1.771   2.826   6.628  1.1554 -0.9379 -2.3893
22263SOL     OW66966   8.807   5.281   2.690  0.0874  0.1973 -0.4852
22263SOL    HW166967   8.737   5.267   2.619 -0.0485  2.2859 -0.8148
22263SOL    HW266968   8.818   5.378   2.707  2.2888 -0.1226  0.2241
22264SOL     OW66969   4.703   8.755   7.811  0.3995 -0.0200  0.7086
22264SOL    HW166970   4.656   8.770   7.723 -0.5361  1.8066  1.4760
22264SOL    HW266971   4.666   8.673   7.854  0.6785 -0.7910 -0.4474
22265SOL     OW66972   6.705   7.378   8.013  0.0184  0.8771 -0.0352
22265SOL    HW166973   6.659   7.319   7.946  3.0414 -0.6343 -0.9708
22265SOL    HW266974   6.710   7.331   8.101 -0.5108  1.1902  0.1652
22266SOL     OW66975   5.010   5.275   4.051 -0.0368 -0.1906 -0.5252
22266SOL    HW166976   5.060   5.359   4.031  0.8995 -1.0088 -1.8289
22266SOL    HW266977   5.056   5.226   4.125 -1.6785  1.3050  1.6089
22267SOL     OW66978   2.407   8.354   2.352 -0.8360  0.1596 -0.2959
22267SOL    HW166979   2.364   8.297   2.282  0.2148 -0.4119 -0.4923
22267SOL    HW266980   2.420   8.447   2.316 -0.6020 -0.0443 -0.7403
22268SOL     OW66981   8.371   7.491   7.984 -0.5294 -0.2116  0.6071
22268SOL    HW166982   8.440   7.461   7.919 -0.6202 -1.1754  0.9307
22268SOL    HW266983   8.352   7.588   7.971  0.2297 -0.1460 -0.0779
22269SOL     OW66984   4.300   3.497   6.754  0.1785  0.0986 -0.4507
22269SOL    HW166985   4.398   3.484   6.735  1.0120  1.3725  2.4918
22269SOL    HW266986   4.289   3.546   6.840 -3.0086  4.0510 -2.8007
22270SOL     OW66987   8.708   0.883   5.543 -0.0299  0.1180 -0.6297
22270SOL    HW166988   8.641   0.908   5.613  0.2726 -1.4837  0.2728
22270SOL    HW266989   8.662   0.871   5.455 -0.8318 -0.4165 -0.1423
22271SOL     OW66990   2.588   4.858   6.151 -0.4864 -0.8706 -0.1365
22271SOL    HW166991   2.657   4.919   6.113  0.8692 -0.6576  2.4722
22271SOL    HW266992   2.507   4.911   6.176  0.6132 -0.0443  1.9448
22272SOL     OW66993   8.335   7.674   7.627 -0.1088 -0.5554 -0.1532
22272SOL    HW166994   8.395   7.741   7.671 -0.3244  1.3564 -2.5681
22272SOL    HW266995   8.391   7.607   7.578  0.0831 -0.5961  0.1197
22273SOL     OW66996   6.768   0.492   7.842  0.1935  0.0296 -0.1478
22273SOL    HW166997   6.690   0.491   7.906  0.7732  1.2173  0.6071
22273SOL    HW266998   6.853   0.492   7.894  0.7233 -1.4467 -0.9719
22274SOL     OW66999   0.834   5.723   2.108 -0.3699  0.4232  0.4399
22274SOL    HW167000   0.806   5.677   2.023  1.1454  0.3004 -0.0413
22274SOL    HW267001   0.909   5.671   2.150  0.5295  1.7636  0.5573
22275SOL     OW67002   8.602   6.227   0.186 -0.5440 -0.3296 -0.2767
22275SOL    HW167003   8.625   6.157   0.118 -1.2536 -0.4525 -0.4048
22275SOL    HW267004   8.552   6.184   0.261 -3.8571  0.4453 -1.8349
22276SOL     OW67005   1.096   7.039   3.816  0.1830  0.0023 -0.0431
22276SOL    HW167006   1.104   7.088   3.903 -0.5949  0.1968 -0.0815
22276SOL    HW267007   1.000   7.032   3.789  0.2240 -1.8452  0.1361
22277SOL     OW67008   0.475   4.336   3.591 -0.1973  0.5449  0.4129
22277SOL    HW167009   0.423   4.361   3.509 -0.4270 -1.4688 -0.1129
22277SOL    HW267010   0.541   4.264   3.568 -1.7651 -1.6745  2.3779
22278SOL     OW67011   3.889   0.818   5.341 -0.0442  0.3431 -0.1850
22278SOL    HW167012   3.821   0.872   5.292 -0.4832 -0.4882 -0.5095
22278SOL    HW267013   3.964   0.878   5.370  0.6727  0.7308 -2.6173
22279SOL     OW67014   3.292   7.488   2.008  0.0446 -0.2281 -0.2917
22279SOL    HW167015   3.350   7.419   1.963 -1.5022  0.4335 -3.5818
22279SOL    HW267016   3.202   7.489   1.965 -1.2123  1.3580  2.1700
22280SOL     OW67017   7.157   1.013   1.446  0.2535  0.0933 -0.0628
22280SOL    HW167018   7.131   0.953   1.521 -0.4760 -0.1455 -0.4946
22280SOL    HW267019   7.243   0.981   1.405 -1.1409 -1.8963 -1.5908
22281SOL     OW67020   8.618   7.406   8.163 -0.0677  0.0038 -0.2684
22281SOL    HW167021   8.549   7.340   8.131 -0.0593 -0.7879  1.2620
22281SOL    HW267022   8.571   7.487   8.198 -0.1420  0.1335 -0.6567
22282SOL     OW67023   0.071   6.346   6.657  0.1901  0.5297 -0.0153
22282SOL    HW167024   0.171   6.338   6.659  0.2394  0.2479 -1.9440
22282SOL    HW267025   0.044   6.410   6.586 -1.0333  0.4514  0.3532
22283SOL     OW67026   2.590   4.078   1.786 -0.0434  0.1762 -0.0728
22283SOL    HW167027   2.658   4.094   1.857 -0.9923 -0.0360  0.8992
22283SOL    HW267028   2.617   4.128   1.703 -0.2253  2.5240  1.2111
22284SOL     OW67029   3.788   4.299   7.288 -0.2322 -0.1152 -0.4896
22284SOL    HW167030   3.830   4.351   7.362  0.1845 -0.5159 -0.4367
22284SOL    HW267031   3.860   4.268   7.225 -0.6133  0.4880 -1.2314
22285SOL     OW67032   7.640   5.360   7.359 -0.2196  0.1543 -0.1138
22285SOL    HW167033   7.545   5.385   7.376 -0.6729 -1.4053 -0.2808
22285SOL    HW267034   7.646   5.299   7.281  0.8103 -0.6080  0.5311
22286SOL     OW67035   6.266   8.097   2.992  0.3242 -0.3320 -0.0259
22286SOL    HW167036   6.201   8.170   2.971 -0.5932 -0.0369  3.3113
22286SOL    HW267037   6.228   8.009   2.962 -1.1677 -0.0300  0.8920
22287SOL     OW67038   6.381   2.702   0.917  1.0955 -0.3621  0.4615
22287SOL    HW167039   6.457   2.737   0.861  0.8712  1.2040  1.0781
22287SOL    HW267040   6.320   2.647   0.860  2.6590 -1.6469 -0.0585
22288SOL     OW67041   2.307   3.678   6.790  0.2232  0.2124  0.0369
22288SOL    HW167042   2.298   3.778   6.794 -0.7671  0.1313  0.1824
22288SOL    HW267043   2.304   3.648   6.695  0.8221  0.3426 -0.0252
22289SOL     OW67044   1.098   7.314   3.358 -0.2497 -0.0949  0.9198
22289SOL    HW167045   1.012   7.348   3.320 -0.3386 -0.5589  0.6951
22289SOL    HW267046   1.079   7.261   3.441  0.0769  2.3618  2.6799
22290SOL     OW67047   0.277   1.590   3.228  0.0569  0.2688  0.4291
22290SOL    HW167048   0.359   1.537   3.210  2.5898  2.9109  3.0078
22290SOL    HW267049   0.207   1.531   3.269  1.6791 -1.5564  0.6745
22291SOL     OW67050   8.801   5.370   4.163  0.4576  0.1448 -0.2231
22291SOL    HW167051   8.867   5.339   4.231  1.9390 -0.1493 -1.7510
22291SOL    HW267052   8.758   5.291   4.119 -1.7438  0.3141  1.4652
22292SOL     OW67053   7.456   1.502   4.986  0.5361 -0.1038 -0.3239
22292SOL    HW167054   7.358   1.504   5.008  0.9181  0.9884  1.4836
22292SOL    HW267055   7.497   1.419   5.023  0.2243 -0.7818 -1.4756
22293SOL     OW67056   7.573   0.266   0.160  0.0278 -0.0653  0.2869
22293SOL    HW167057   7.534   0.196   0.219  1.2966 -0.8343  0.2461
22293SOL    HW267058   7.672   0.271   0.175 -0.1541  2.5178  1.1203
22294SOL     OW67059   7.849   8.615   2.462 -0.2707  0.4776  0.4041
22294SOL    HW167060   7.849   8.712   2.488 -0.0594  0.9983 -1.4147
22294SOL    HW267061   7.932   8.594   2.410  0.1574 -0.9447  1.5977
22295SOL     OW67062   6.178   5.024   2.544  0.0754 -0.8951 -0.2003
22295SOL    HW167063   6.205   4.946   2.600  0.3036  0.0679  1.0910
22295SOL    HW267064   6.141   5.096   2.603  1.3418  0.6062 -1.1591
22296SOL     OW67065   2.858   2.948   6.116 -0.3173  0.4009  0.5723
22296SOL    HW167066   2.775   2.896   6.096 -1.1186  1.2327  1.6313
22296SOL    HW267067   2.909   2.962   6.031 -1.8233  0.8277 -0.3021
22297SOL     OW67068   7.164   4.038   1.801  0.3672 -0.3374  0.0535
22297SOL    HW167069   7.260   4.036   1.774  0.4082  2.1006 -0.1411
22297SOL    HW267070   7.114   4.100   1.741 -1.3368 -1.4497  0.2526
22298SOL     OW67071   4.811   2.727   8.612 -0.7092 -0.1151 -0.1919
22298SOL    HW167072   4.769   2.802   8.664 -2.3079  0.0908 -1.6600
22298SOL    HW267073   4.750   2.648   8.613  0.4040 -0.9876  0.3110
22299SOL     OW67074   3.320   5.828   3.507 -0.0711  0.1022  0.1475
22299SOL    HW167075   3.390   5.829   3.436 -0.9306 -2.0648 -0.8353
22299SOL    HW267076   3.252   5.898   3.488 -0.1616 -0.3014 -1.0607
22300SOL     OW67077   6.909   6.396   4.799  0.2715  0.3378  0.0605
22300SOL    HW167078   6.869   6.417   4.888 -0.8818 -1.0853 -0.0990
22300SOL    HW267079   6.958   6.477   4.765  0.3182  1.0554  1.7422
22301SOL     OW67080   7.473   2.730   1.593 -0.0059 -0.0689  0.7763
22301SOL    HW167081   7.518   2.819   1.582 -1.6015  0.7343  0.2821
22301SOL    HW267082   7.523   2.675   1.659  1.0580  1.1788  1.0581
22302SOL     OW67083   1.332   2.005   0.462  0.4811  0.2992  0.0672
22302SOL    HW167084   1.261   1.958   0.516  2.3176 -0.8278  1.6439
22302SOL    HW267085   1.335   2.101   0.489  0.7586 -0.0515  1.3966
22303SOL     OW67086   1.503   6.202   1.422 -0.2246 -0.0978  0.1386
22303SOL    HW167087   1.540   6.279   1.371 -2.7595 -0.3219 -2.2423
22303SOL    HW267088   1.558   6.120   1.405  0.6672  0.4830  0.1808
22304SOL     OW67089   1.405   8.109   2.504  0.5835 -0.5115 -0.1553
22304SOL    HW167090   1.402   8.135   2.408  0.8027  1.1169  0.2617
22304SOL    HW267091   1.486   8.150   2.547  0.0626 -0.5675  0.9084
22305SOL     OW67092   6.298   0.100   0.208 -0.0266  0.7306 -0.0658
22305SOL    HW167093   6.239   0.028   0.245  0.4525  0.5469  0.3457
22305SOL    HW267094   6.369   0.059   0.151 -0.9338  1.0335 -1.4414
22306SOL     OW67095   2.483   5.387   3.124  0.2906 -0.5271 -0.4044
22306SOL    HW167096   2.553   5.338   3.175  0.7074  1.1965  0.7431
22306SOL    HW267097   2.521   5.472   3.088 -1.2861  0.6619  0.5991
22307SOL     OW67098   1.475   1.679   0.064 -0.2550  0.6388 -0.2021
22307SOL    HW167099   1.394   1.628   0.091 -0.4739 -0.3826 -2.4995
22307SOL    HW267100   1.465   1.775   0.090  0.0834 -0.2831  4.0655
22308SOL     OW67101   6.458   6.069   3.010  0.5629  0.4391 -0.3328
22308SOL    HW167102   6.360   6.055   3.004  0.6717 -2.6749  2.3115
22308SOL    HW267103   6.478   6.155   3.057 -0.7889  1.6510 -1.8868
22309SOL     OW67104   0.417   6.514   7.803 -0.1039 -0.1407 -0.2372
22309SOL    HW167105   0.409   6.520   7.703  0.9085  1.1718 -0.2693
22309SOL    HW267106   0.362   6.587   7.844  1.2648  0.7711  0.0414
22310SOL     OW67107   0.088   3.524   7.250 -0.7259 -0.2224  0.0466
22310SOL    HW167108   0.149   3.485   7.319 -0.7109  0.2769  0.3177
22310SOL    HW267109   0.122   3.500   7.159 -1.8088 -2.5676  0.1691
22311SOL     OW67110   8.002   3.663   6.980  0.3555  0.4621 -0.2108
22311SOL    HW167111   7.981   3.646   6.884  1.9610  0.9145 -0.6622
22311SOL    HW267112   7.933   3.724   7.019 -1.0475 -0.7615 -0.6872
22312SOL     OW67113   0.861   0.609   5.920  0.0085  0.4797  0.1025
22312SOL    HW167114   0.943   0.553   5.909  0.4482  1.1900 -0.3086
22312SOL    HW267115   0.781   0.558   5.887  0.6275  0.6953 -1.8878
22313SOL     OW67116   0.067   5.448   6.308  0.1431  0.1669  0.5554
22313SOL    HW167117   0.092   5.404   6.394 -0.0571  1.3868  1.2565
22313SOL    HW267118   0.075   5.382   6.233 -0.0213 -1.0141  1.5472
22314SOL     OW67119   5.165   6.342   0.378  0.0186 -0.4600  0.1980
22314SOL    HW167120   5.069   6.326   0.356 -0.5025  0.1969  1.8779
22314SOL    HW267121   5.195   6.276   0.447  0.1999  0.5788  1.1323
22315SOL     OW67122   2.052   4.335   6.658  0.0785 -0.2646 -0.2429
22315SOL    HW167123   2.141   4.341   6.701 -0.2208 -1.6129  0.6084
22315SOL    HW267124   2.059   4.366   6.563  1.2937  0.2850  0.0086
22316SOL     OW67125   0.704   2.792   0.732  0.3251  0.1176 -0.6317
22316SOL    HW167126   0.609   2.770   0.711 -0.4688  2.6172 -0.0290
22316SOL    HW267127   0.750   2.823   0.648  1.2006 -2.6908 -1.2994
22317SOL     OW67128   2.053   2.727   5.961  0.5969 -0.3950  0.2637
22317SOL    HW167129   2.050   2.826   5.954 -1.1900 -0.3768  0.8013
22317SOL    HW267130   1.965   2.688   5.934  0.9024 -1.7609  1.1019
22318SOL     OW67131   5.844   0.062   1.471  0.0375  0.3359  0.0654
22318SOL    HW167132   5.856   0.161   1.467 -3.1848  0.8825  0.6132
22318SOL    HW267133   5.868   0.021   1.383  1.2857  1.6045 -0.2066
22319SOL     OW67134   2.959   4.836   1.270 -0.0401  0.2747  0.0274
22319SOL    HW167135   2.868   4.855   1.232 -1.1821 -0.9673  1.9418
22319SOL    HW267136   3.028   4.851   1.200 -1.9701 -2.0128 -2.5983
22320SOL     OW67137   3.494   7.325   1.903  0.1244  0.3265  0.2816
22320SOL    HW167138   3.550   7.405   1.883  0.1733  0.6233  1.5298
22320SOL    HW267139   3.544   7.264   1.964  0.2093 -0.8349 -0.8840
22321SOL     OW67140   2.100   3.361   7.098  0.4018  0.5417  0.0728
22321SOL    HW167141   2.125   3.276   7.052 -1.5084  0.0454 -0.1411
22321SOL    HW267142   2.178   3.423   7.099  1.1034 -0.2357 -2.0157
22322SOL     OW67143   6.287   3.204   4.918 -0.1023 -0.0702 -0.3413
22322SOL    HW167144   6.192   3.200   4.889  0.0450  2.0408 -1.2693
22322SOL    HW267145   6.346   3.166   4.846 -0.1661 -0.8007 -0.0243
22323SOL     OW67146   3.944   4.195   7.062 -0.4651  0.2291 -0.1197
22323SOL    HW167147   3.970   4.253   6.985 -0.5595 -0.9125 -1.0294
22323SOL    HW267148   3.862   4.143   7.039  0.4875 -1.4239  0.0660
22324SOL     OW67149   5.993   2.876   6.202 -0.5915 -0.3485  0.8229
22324SOL    HW167150   5.948   2.818   6.134  0.1064 -0.6645  0.6235
22324SOL    HW267151   6.057   2.937   6.157 -0.5991 -0.1081  1.1324
22325SOL     OW67152   5.687   1.075   0.376  0.6847  0.2765  0.1012
22325SOL    HW167153   5.777   1.081   0.331  0.3503 -0.6697 -0.7292
22325SOL    HW267154   5.620   1.040   0.311 -0.0970  0.1149  0.9801
22326SOL     OW67155   3.777   2.140   4.807  0.4359 -0.4491 -0.0268
22326SOL    HW167156   3.733   2.053   4.830 -1.2582  0.4384  0.2445
22326SOL    HW267157   3.751   2.167   4.714  3.0533 -1.4593 -1.1356
22327SOL     OW67158   0.002   8.464   0.515 -0.2848 -0.2859  0.4133
22327SOL    HW167159   0.029   8.444   0.421 -1.1651  1.5494 -0.2788
22327SOL    HW267160  -0.074   8.405   0.541  0.3819 -1.2543  0.2282
22328SOL     OW67161   3.129   6.222   3.868 -0.2428 -0.3331  0.0729
22328SOL    HW167162   3.160   6.285   3.797  0.4042 -2.2418 -1.4247
22328SOL    HW267163   3.052   6.168   3.834 -0.4203 -0.7682  1.1155
22329SOL     OW67164   0.350   2.387   7.675  0.3105  0.4482  0.1791
22329SOL    HW167165   0.339   2.430   7.584 -0.8812 -0.1910 -0.0007
22329SOL    HW267166   0.316   2.293   7.671  0.2440  0.4206  1.2916
22330SOL     OW67167   2.548   7.420   1.428 -0.1927  0.4401 -0.4611
22330SOL    HW167168   2.568   7.324   1.406  0.0241  0.4370 -0.2645
22330SOL    HW267169   2.479   7.455   1.366 -1.7339 -0.4289  0.7020
22331SOL     OW67170   6.032   0.355   5.199 -0.1535 -0.5790 -0.2967
22331SOL    HW167171   6.132   0.367   5.204 -0.0283 -1.4055 -0.6090
22331SOL    HW267172   5.997   0.335   5.290 -0.1875  0.7119 -0.0011
22332SOL     OW67173   0.022   1.992   6.291  0.2181 -0.3722 -0.0941
22332SOL    HW167174  -0.024   2.019   6.375 -0.1279 -0.1078 -0.3633
22332SOL    HW267175   0.019   2.068   6.225  0.8258 -0.4388 -0.2042
22333SOL     OW67176   4.859   2.178   5.472  0.4270 -0.1951 -0.0194
22333SOL    HW167177   4.797   2.149   5.399  0.4568  0.5125 -0.3360
22333SOL    HW267178   4.950   2.193   5.434  0.8125 -1.2607  0.4489
22334SOL     OW67179   6.698   5.911   8.333 -0.0323  0.3268 -0.0810
22334SOL    HW167180   6.634   5.930   8.407 -0.8130 -0.5219 -0.5161
22334SOL    HW267181   6.666   5.956   8.249  1.1535  1.7733  0.1984
22335SOL     OW67182   7.955   5.428   1.162  0.1205  0.3949  0.5962
22335SOL    HW167183   7.868   5.436   1.211  0.7618 -0.0549  1.8514
22335SOL    HW267184   7.939   5.434   1.064 -1.4621 -0.8471  0.7481
22336SOL     OW67185   8.741   5.666   3.002 -0.1196  0.4299 -0.2127
22336SOL    HW167186   8.728   5.757   2.962  1.9098  0.7629 -0.2235
22336SOL    HW267187   8.775   5.603   2.932 -1.2712 -0.3012 -0.1466
22337SOL     OW67188   8.300   8.242   4.397  0.1617  0.0325  0.5700
22337SOL    HW167189   8.348   8.154   4.396  2.0313  0.9018  2.9908
22337SOL    HW267190   8.289   8.272   4.492  0.3562  2.8083 -0.2036
22338SOL     OW67191   5.356   7.687   8.757  0.2798  0.3253 -0.6265
22338SOL    HW167192   5.427   7.663   8.691  1.1527 -2.3120  1.1290
22338SOL    HW267193   5.398   7.720   8.841 -0.6015 -0.2398  0.0589
22339SOL     OW67194   6.480   5.635   4.066 -0.5257  0.0744  0.3717
22339SOL    HW167195   6.487   5.604   4.161  0.4189  0.6344  0.4953
22339SOL    HW267196   6.567   5.621   4.020 -0.6242  0.8780 -0.0764
22340SOL     OW67197   7.525   5.756   2.154  0.0656  0.2651  0.0354
22340SOL    HW167198   7.482   5.750   2.064 -0.7178 -1.7713  0.4812
22340SOL    HW267199   7.622   5.732   2.146  0.2580  1.1544 -0.4073
22341SOL     OW67200   2.100   1.789   7.610 -0.2805 -0.5984  0.1233
22341SOL    HW167201   2.006   1.774   7.640 -0.3158  1.4115  1.1649
22341SOL    HW267202   2.103   1.799   7.510 -1.0345 -1.4904  0.0038
22342SOL     OW67203   2.758   7.851   1.650  0.0383 -0.1109 -0.5107
22342SOL    HW167204   2.719   7.803   1.572  3.4599 -1.1833 -1.7791
22342SOL    HW267205   2.811   7.929   1.618  0.8883 -0.1293  0.7739
22343SOL     OW67206   5.497   5.319   7.675  0.2925  0.4066 -0.6166
22343SOL    HW167207   5.571   5.321   7.742 -0.6262 -1.1017  0.4916
22343SOL    HW267208   5.534   5.296   7.585  1.3798  1.3455 -0.4294
22344SOL     OW67209   4.428   5.037   0.559  0.4894  0.0750  0.5734
22344SOL    HW167210   4.414   5.001   0.467  1.9704 -0.7027  0.6204
22344SOL    HW267211   4.390   5.129   0.566 -1.1283 -0.4928 -0.3086
22345SOL     OW67212   3.399   3.705   1.861 -0.4576  0.1787 -0.6256
22345SOL    HW167213   3.325   3.638   1.851 -0.1066 -0.6609  1.6111
22345SOL    HW267214   3.463   3.697   1.785 -0.8030 -1.5843 -0.7720
22346SOL     OW67215   4.205   5.652   2.319 -0.2168  0.0128 -0.7318
22346SOL    HW167216   4.138   5.725   2.304 -1.0109 -0.7651 -1.0622
22346SOL    HW267217   4.192   5.613   2.410  1.8814  1.9437  0.5105
22347SOL     OW67218   0.174   2.420   0.898  0.2364  0.6145 -0.5677
22347SOL    HW167219   0.185   2.344   0.962 -0.0139  0.4259 -0.7486
22347SOL    HW267220   0.097   2.402   0.836  0.3447  0.8886 -0.7881
22348SOL     OW67221   8.151   7.111   3.791 -0.0737 -0.3085  0.0213
22348SOL    HW167222   8.164   7.195   3.845  0.3528 -0.7433  0.6075
22348SOL    HW267223   8.053   7.096   3.778 -0.1511  0.5097 -0.4700
22349SOL     OW67224   3.538   0.655   5.228 -0.4577 -0.2472 -0.2919
22349SOL    HW167225   3.594   0.640   5.146 -0.9576 -0.9066 -0.5245
22349SOL    HW267226   3.595   0.692   5.301  0.2710 -0.8314 -0.5500
22350SOL     OW67227   3.567   2.625   4.867 -0.6398  0.7254 -0.7491
22350SOL    HW167228   3.666   2.635   4.863 -0.7129  1.9019 -0.1127
22350SOL    HW267229   3.542   2.531   4.844  0.7193  0.0271  0.4587
22351SOL     OW67230   7.452   5.567   0.781  0.5362  0.1158 -0.2259
22351SOL    HW167231   7.472   5.665   0.775  1.7469 -0.0517  0.6731
22351SOL    HW267232   7.449   5.539   0.877  0.5712 -0.7999 -0.4825
22352SOL     OW67233   5.111   3.658   4.400 -0.7727  0.2221  0.3067
22352SOL    HW167234   5.152   3.749   4.401 -0.2616  0.0859 -2.0493
22352SOL    HW267235   5.027   3.661   4.346  0.5631 -1.1496 -1.9782
22353SOL     OW67236   4.316   4.930   7.567  0.1418 -0.0123  0.4270
22353SOL    HW167237   4.243   4.880   7.520 -0.2589  0.1309  0.8879
22353SOL    HW267238   4.366   4.986   7.501  1.9811 -2.5934 -0.5487
22354SOL     OW67239   3.968   8.591   3.659 -0.0479  0.3209 -0.0000
22354SOL    HW167240   4.051   8.573   3.711  0.9529 -0.4705 -1.8006
22354SOL    HW267241   3.988   8.656   3.585 -1.4242  1.3992  0.5274
22355SOL     OW67242   8.223   4.153   1.005 -0.4818 -0.4103 -0.5174
22355SOL    HW167243   8.310   4.103   1.006  0.3917  1.0623  0.0420
22355SOL    HW267244   8.166   4.118   0.931  1.3188 -0.2288 -2.0734
22356SOL     OW67245   0.887   3.608   7.825 -0.1339  0.3473 -0.1481
22356SOL    HW167246   0.846   3.576   7.910 -0.2650 -1.0400 -0.7007
22356SOL    HW267247   0.846   3.559   7.747  0.7413  0.7938 -0.9145
22357SOL     OW67248   3.785   8.309   0.097  0.2398  0.6344 -0.0081
22357SOL    HW167249   3.845   8.371   0.046 -1.4182  1.8117 -0.5747
22357SOL    HW267250   3.771   8.345   0.189  0.6434  0.1814  0.2368
22358SOL     OW67251   4.259   1.462   6.261 -0.1559 -0.1308 -0.4830
22358SOL    HW167252   4.338   1.524   6.266  0.0685 -0.4507  0.0211
22358SOL    HW267253   4.200   1.477   6.340  0.4643 -1.3011  0.2291
22359SOL     OW67254   0.390   4.150   0.075 -0.0079 -0.4914  0.1532
22359SOL    HW167255   0.451   4.156   0.154 -1.1458 -0.7094  1.0746
22359SOL    HW267256   0.305   4.200   0.095 -0.0302  0.0566 -1.2123
22360SOL     OW67257   0.044   5.911   4.440 -0.3746 -0.0537 -0.3043
22360SOL    HW167258  -0.042   5.945   4.477  0.5595  1.4749  0.5592
22360SOL    HW267259   0.117   5.922   4.507  0.9560  0.8806 -1.8068
22361SOL     OW67260   5.564   3.335   3.851 -0.1450  0.5611  0.1769
22361SOL    HW167261   5.564   3.289   3.940 -0.7478  2.6703  1.3412
22361SOL    HW267262   5.657   3.336   3.814 -0.1134 -1.5450  0.0680
22362SOL     OW67263   3.321   8.175   3.179  0.0264 -0.5385 -0.1706
22362SOL    HW167264   3.365   8.132   3.258 -1.7498  0.1632  1.2741
22362SOL    HW267265   3.324   8.113   3.101  0.9325 -1.6790  0.7351
22363SOL     OW67266   6.555   4.937   2.428  0.6927  0.0640 -0.2721
22363SOL    HW167267   6.539   4.996   2.507  1.9087  0.6551 -0.4384
22363SOL    HW267268   6.509   4.975   2.348 -0.7788 -0.6864  0.1838
22364SOL     OW67269   4.558   0.858   0.904 -0.2800 -0.3524 -0.3432
22364SOL    HW167270   4.646   0.852   0.951 -1.0602 -2.0472  1.0145
22364SOL    HW267271   4.573   0.855   0.805  1.2410  0.7374 -0.1854
22365SOL     OW67272   0.700   8.794   3.954  0.3858  0.4258  0.5919
22365SOL    HW167273   0.758   8.819   3.876  1.4573 -0.7132  0.9886
22365SOL    HW267274   0.679   8.875   4.008 -1.5200  1.5126 -1.5773
22366SOL     OW67275   4.659   6.060   3.606 -0.3314  0.1907  0.6405
22366SOL    HW167276   4.562   6.084   3.603  0.1841  2.4348 -0.6774
22366SOL    HW267277   4.679   5.995   3.532 -0.4444  1.6105 -0.6940
22367SOL     OW67278   8.022   3.103   3.469 -0.3042  0.3953  0.3123
22367SOL    HW167279   8.097   3.125   3.531 -2.3638  1.4623  2.6148
22367SOL    HW267280   7.959   3.039   3.515 -0.5981 -0.8705 -1.7349
22368SOL     OW67281   6.972   5.750   2.239  0.3576 -0.2798  0.7627
22368SOL    HW167282   7.050   5.781   2.294 -0.1469  0.3996  1.1048
22368SOL    HW267283   6.891   5.742   2.297 -0.1352  0.2537  0.1576
22369SOL     OW67284   8.298   5.222   2.301 -0.3813  0.0104 -0.7216
22369SOL    HW167285   8.331   5.308   2.340  1.7828 -0.8140 -0.6088
22369SOL    HW267286   8.367   5.184   2.240 -1.3413 -1.6028 -0.8601
22370SOL     OW67287   7.169   1.331   2.070 -0.3155  0.3800 -0.8419
22370SOL    HW167288   7.207   1.240   2.062 -1.7809 -0.1546 -2.4544
22370SOL    HW267289   7.178   1.379   1.983  0.3335  1.7636 -0.0523
22371SOL     OW67290   5.522   6.955   2.317  0.3384 -0.4881 -0.0790
22371SOL    HW167291   5.566   6.908   2.393 -0.8481 -0.2884  0.7570
22371SOL    HW267292   5.455   7.020   2.352 -2.0182 -2.1253 -1.3032
22372SOL     OW67293   0.830   6.518   0.776 -0.7329  0.6972  0.2303
22372SOL    HW167294   0.792   6.588   0.837 -0.6936  1.1341 -0.2421
22372SOL    HW267295   0.876   6.448   0.831  1.6048  2.4164  0.6580
22373SOL     OW67296   1.343   6.783   8.582 -0.3445 -0.5488 -0.2172
22373SOL    HW167297   1.413   6.795   8.511 -1.6355 -1.8595 -1.7893
22373SOL    HW267298   1.382   6.806   8.671  1.8689 -0.5694 -1.1174
22374SOL     OW67299   7.587   3.963   3.334 -0.3684  0.0464  0.6721
22374SOL    HW167300   7.501   3.926   3.368 -1.8307  2.2414 -0.4044
22374SOL    HW267301   7.599   4.056   3.367  0.9013  0.2679 -0.3301
22375SOL     OW67302   2.286   8.721   5.687 -0.0769 -0.3540 -0.2662
22375SOL    HW167303   2.333   8.795   5.639 -0.4479  0.4011  0.5216
22375SOL    HW267304   2.271   8.645   5.624  0.9077 -0.0320 -0.9070
22376SOL     OW67305   6.365   2.176   6.331  0.0632  0.2138  0.0884
22376SOL    HW167306   6.429   2.168   6.254 -0.5622 -0.5173 -0.3747
22376SOL    HW267307   6.280   2.217   6.299 -0.7167 -1.3613  0.0510
22377SOL     OW67308   3.761   1.593   6.898  0.1924 -0.0041 -0.3243
22377SOL    HW167309   3.731   1.507   6.858 -1.4207  0.7097 -0.7404
22377SOL    HW267310   3.781   1.580   6.995  0.6003 -0.9741 -0.5280
22378SOL     OW67311   8.428   2.169   4.166  0.3488  0.5236  0.1458
22378SOL    HW167312   8.372   2.173   4.248  0.9732 -1.2043  0.7124
22378SOL    HW267313   8.373   2.135   4.090  0.2839  0.0834  0.3849
22379SOL     OW67314   3.705   8.713   8.513  0.4306 -0.1867 -0.2030
22379SOL    HW167315   3.652   8.793   8.483 -0.1776 -0.1041  1.0427
22379SOL    HW267316   3.685   8.693   8.609  2.0935 -0.6235  0.0959
22380SOL     OW67317   4.286   4.388   6.261  0.5842 -0.3465 -0.2854
22380SOL    HW167318   4.374   4.408   6.305  0.2789 -2.0075  1.2367
22380SOL    HW267319   4.269   4.289   6.267 -0.3505 -0.3750 -2.6037
22381SOL     OW67320   5.669   3.525   8.537  0.1086 -0.0457  0.1381
22381SOL    HW167321   5.613   3.496   8.460 -1.6882 -1.1898  1.8022
22381SOL    HW267322   5.640   3.616   8.567  0.8382  0.4190 -0.5335
22382SOL     OW67323   0.537   3.965   1.648 -0.4601 -0.2762  0.2673
22382SOL    HW167324   0.440   3.981   1.628 -0.8661 -0.2359  2.0739
22382SOL    HW267325   0.575   4.044   1.697  0.7141  0.0405 -1.1034
22383SOL     OW67326   1.894   0.455   1.715 -0.7907  0.1890 -0.2067
22383SOL    HW167327   1.984   0.415   1.703 -1.3119 -1.0195 -0.1942
22383SOL    HW267328   1.898   0.553   1.694  0.3305 -0.0196 -1.0506
22384SOL     OW67329   3.670   0.890   2.091 -0.3920 -0.7134  0.2211
22384SOL    HW167330   3.656   0.793   2.073  0.1068 -0.9065  0.7859
22384SOL    HW267331   3.595   0.925   2.147 -0.6578 -0.7312 -0.1236
22385SOL     OW67332   4.928   3.300   4.643  0.0372 -0.5431 -0.3750
22385SOL    HW167333   4.918   3.373   4.575  1.7345 -0.3798 -0.5089
22385SOL    HW267334   4.890   3.331   4.731 -0.4292  0.0051 -0.7648
22386SOL     OW67335   6.024   4.024   7.255  0.8089 -0.2471 -0.0894
22386SOL    HW167336   6.060   3.931   7.247 -2.0360 -1.8109  2.8858
22386SOL    HW267337   6.020   4.050   7.352 -0.3165  2.2139 -0.7189
22387SOL     OW67338   0.165   4.214   2.814 -0.5857 -0.0234 -0.2983
22387SOL    HW167339   0.081   4.165   2.792  0.1916 -2.2169  1.3350
22387SOL    HW267340   0.226   4.212   2.735 -1.7921  1.1100 -1.3101
22388SOL     OW67341   3.677   4.851   1.287 -0.8932  0.0718 -1.0778
22388SOL    HW167342   3.698   4.754   1.285 -1.7419 -0.1751  0.6311
22388SOL    HW267343   3.666   4.881   1.382 -0.3541  1.9047 -1.5480
22389SOL     OW67344   1.929   7.900   1.864  0.3758 -0.3299  0.4594
22389SOL    HW167345   1.944   7.940   1.773 -1.2251  0.3668  0.4664
22389SOL    HW267346   1.977   7.954   1.933  1.5273 -0.8096  0.0620
22390SOL     OW67347   7.755   0.563   3.257  0.1101 -0.0073  0.1841
22390SOL    HW167348   7.828   0.556   3.189  0.3473  0.4037  0.3921
22390SOL    HW267349   7.744   0.658   3.284 -0.0042 -0.1649  0.6977
22391SOL     OW67350   4.746   3.020   0.934  0.8868 -0.4130  0.1485
22391SOL    HW167351   4.701   2.947   0.985 -1.8097  0.5437 -0.7006
22391SOL    HW267352   4.814   3.064   0.993 -0.7374 -0.5978  2.2954
22392SOL     OW67353   2.023   1.673   6.601  0.0070  0.3958 -0.1360
22392SOL    HW167354   2.054   1.716   6.686  0.7191  0.7012 -0.5374
22392SOL    HW267355   1.966   1.738   6.550  0.4172  0.5845 -0.3624
22393SOL     OW67356   7.212   3.635   4.198 -0.6772  0.3084  0.0032
22393SOL    HW167357   7.230   3.589   4.286 -1.1991  1.6691  0.8497
22393SOL    HW267358   7.287   3.615   4.135 -0.2867 -0.6967  0.7503
22394SOL     OW67359   3.715   3.333   3.751  0.0709 -1.0994  0.3103
22394SOL    HW167360   3.719   3.397   3.828  0.0137 -1.9400  1.0313
22394SOL    HW267361   3.636   3.272   3.763 -0.1262 -1.0339 -0.5879
22395SOL     OW67362   4.994   5.174   1.115 -0.5796 -0.0798  0.0027
22395SOL    HW167363   4.922   5.242   1.102  0.0236  0.4415 -0.7154
22395SOL    HW267364   5.067   5.191   1.049  0.3515 -0.4026  0.9403
22396SOL     OW67365   3.302   1.279   2.181  0.1684  0.2952  0.2758
22396SOL    HW167366   3.387   1.245   2.140  0.3563 -0.7401  1.4567
22396SOL    HW267367   3.323   1.355   2.243  0.0800  0.7997 -0.3043
22397SOL     OW67368   6.720   4.031   8.261 -0.2840  0.3462  0.2257
22397SOL    HW167369   6.752   4.125   8.275 -0.7352  0.8946 -2.0940
22397SOL    HW267370   6.688   4.020   8.168  0.4821 -2.3634  0.1903
22398SOL     OW67371   0.163   7.244   0.092 -0.6292 -0.1687  0.4210
22398SOL    HW167372   0.067   7.256   0.065 -0.9176 -1.5361  0.7654
22398SOL    HW267373   0.179   7.148   0.115  1.2157 -0.2749 -1.1193
22399SOL     OW67374   2.092   8.198   1.083  0.3307 -0.0277  0.1235
22399SOL    HW167375   1.999   8.215   1.116 -0.1162 -0.7349 -0.7505
22399SOL    HW267376   2.089   8.148   0.997  1.5320 -0.3289  0.2342
22400SOL     OW67377   5.893   8.428   4.172  0.0571  0.2295 -0.2387
22400SOL    HW167378   5.875   8.464   4.081 -1.8355  0.4134  0.1523
22400SOL    HW267379   5.934   8.337   4.165 -0.9160 -0.1548 -1.3164
22401SOL     OW67380   3.872   7.772   1.742  0.8701  0.5162 -0.3208
22401SOL    HW167381   3.811   7.739   1.814  2.8567  0.4249  1.4029
22401SOL    HW267382   3.836   7.857   1.703 -1.3663 -0.5723 -0.8377
22402SOL     OW67383   7.048   5.950   4.563  0.1418  0.3769  0.2452
22402SOL    HW167384   6.996   5.958   4.478 -0.2259  0.4901  0.4763
22402SOL    HW267385   7.066   5.853   4.582 -0.6736  0.2836  0.5701
22403SOL     OW67386   6.151   7.041   6.780 -0.0026  0.0828  0.3054
22403SOL    HW167387   6.226   6.994   6.826  0.3132 -0.7329 -0.9842
22403SOL    HW267388   6.188   7.109   6.717 -0.4553  1.9485  1.9642
22404SOL     OW67389   3.294   3.835   2.565 -0.2021  0.2707  0.8247
22404SOL    HW167390   3.280   3.738   2.585  0.2593  0.0641  0.1754
22404SOL    HW267391   3.218   3.870   2.511  1.3173 -0.6756 -2.1103
22405SOL     OW67392   0.730   0.042   7.318 -0.0087  0.2869  0.3697
22405SOL    HW167393   0.743  -0.057   7.316 -1.1251  0.0975  1.3452
22405SOL    HW267394   0.805   0.086   7.269 -1.5361 -1.1644 -3.7110
22406SOL     OW67395   2.628   7.658   4.028  0.0184 -0.2313 -0.5942
22406SOL    HW167396   2.629   7.758   4.022 -0.2754 -0.1691  0.3146
22406SOL    HW267397   2.614   7.630   4.123  0.4043 -1.1405 -0.7934
22407SOL     OW67398   8.489   7.965   1.747 -0.3976 -0.2009 -0.0671
22407SOL    HW167399   8.423   7.911   1.696 -0.3296  0.3143 -0.7030
22407SOL    HW267400   8.560   7.905   1.784 -0.0642 -0.5022 -1.1640
22408SOL     OW67401   6.529   4.236   0.921  0.6404 -0.1471  0.2164
22408SOL    HW167402   6.579   4.323   0.930  1.5640 -0.7402  0.9595
22408SOL    HW267403   6.529   4.208   0.825  1.6754 -0.0915  0.1875
22409SOL     OW67404   3.637   2.872   1.692 -0.1589  0.3931  0.1682
22409SOL    HW167405   3.603   2.965   1.677  0.6414  0.3922 -1.9929
22409SOL    HW267406   3.734   2.868   1.667 -0.3437 -1.1668 -0.3980
22410SOL     OW67407   1.628   6.694   0.913  0.1172  0.5441 -0.3340
22410SOL    HW167408   1.670   6.684   0.822 -0.2081 -0.0449 -0.4212
22410SOL    HW267409   1.567   6.773   0.912 -0.5420  0.0405 -0.8855
22411SOL     OW67410   2.573   8.838   1.587 -0.1263 -0.2359 -0.6805
22411SOL    HW167411   2.474   8.824   1.583 -0.2646  0.8601 -4.0268
22411SOL    HW267412   2.592   8.933   1.611  0.1931 -0.6720  0.8892
22412SOL     OW67413   0.443   3.310   2.846  0.5194 -0.1293 -0.0054
22412SOL    HW167414   0.426   3.383   2.779  1.1705 -0.3231 -0.4008
22412SOL    HW267415   0.432   3.221   2.802 -1.1211 -0.2995  0.6950
22413SOL     OW67416   2.142   1.756   0.157 -0.1752  0.0326 -0.6632
22413SOL    HW167417   2.168   1.718   0.068  1.7839  1.0885 -0.5980
22413SOL    HW267418   2.214   1.737   0.224 -0.9435  0.5270  0.3235
22414SOL     OW67419   0.790   5.345   7.989 -0.1966  0.3213 -0.7851
22414SOL    HW167420   0.814   5.291   8.069  1.3885  1.9625 -0.0677
22414SOL    HW267421   0.691   5.355   7.983 -0.3240  1.2570  1.7880
22415SOL     OW67422   2.351   2.318   1.440  0.3435  0.1389 -0.1982
22415SOL    HW167423   2.362   2.231   1.392  0.1923 -1.4812  2.5122
22415SOL    HW267424   2.439   2.348   1.475  0.0926 -0.0191  0.5964
22416SOL     OW67425   4.005   6.361   1.316 -0.0972  0.7077 -0.3323
22416SOL    HW167426   3.924   6.398   1.269 -0.8385  0.2194  0.5235
22416SOL    HW267427   4.014   6.405   1.406  1.2163  1.5227 -0.8370
22417SOL     OW67428   4.755   5.468   5.597 -0.1434 -0.1136  0.4130
22417SOL    HW167429   4.805   5.432   5.676  1.5959  3.3176  1.0687
22417SOL    HW267430   4.685   5.531   5.629  1.0136  1.8290 -0.7210
22418SOL     OW67431   3.008   0.397   2.122  0.0911 -0.0376  0.1000
22418SOL    HW167432   2.999   0.450   2.206  0.7261  1.9354 -1.0101
22418SOL    HW267433   3.101   0.360   2.116 -0.1098 -0.6255  0.4877
22419SOL     OW67434   0.944   3.119   6.407  0.0816  0.6775 -0.0080
22419SOL    HW167435   0.981   3.052   6.343  0.2198 -0.4323  1.1734
22419SOL    HW267436   1.008   3.132   6.483  0.3023  2.5750 -0.4584
22420SOL     OW67437   3.946   1.708   7.267 -0.0861  0.3536 -0.0766
22420SOL    HW167438   4.018   1.749   7.211 -0.7310 -0.5663 -1.6445
22420SOL    HW267439   3.900   1.636   7.215 -0.3021 -0.9912  1.8895
22421SOL     OW67440   1.350   1.675   3.913 -0.0739  0.5091  0.1562
22421SOL    HW167441   1.400   1.630   3.987 -0.5400 -0.0745  0.1213
22421SOL    HW267442   1.261   1.631   3.900 -0.3033  1.0767 -0.2636
22422SOL     OW67443   7.447   8.276   3.034 -0.4207 -0.0143  0.4914
22422SOL    HW167444   7.505   8.287   2.954 -0.4628  0.1660  0.4836
22422SOL    HW267445   7.351   8.274   3.006 -0.4005 -0.6924  0.4694
22423SOL     OW67446   5.915   2.356   4.872 -1.2236  0.9293  0.0070
22423SOL    HW167447   5.815   2.354   4.878 -1.3490  1.0165 -1.6792
22423SOL    HW267448   5.945   2.298   4.796 -0.0519  1.6381 -0.0952
22424SOL     OW67449   2.501   7.028   6.529 -0.2139 -0.2531 -0.0466
22424SOL    HW167450   2.528   6.963   6.457  0.8747 -1.1127  1.0905
22424SOL    HW267451   2.527   7.121   6.502  1.0629 -0.6879 -0.3684
22425SOL     OW67452   7.016   5.411   3.395  0.0823  0.4787  0.4977
22425SOL    HW167453   6.999   5.339   3.327  0.1680 -0.6201  1.6029
22425SOL    HW267454   7.014   5.500   3.350 -0.3020 -0.1853 -0.8637
22426SOL     OW67455   8.737   6.621   6.657 -0.0144  1.1593  0.0024
22426SOL    HW167456   8.765   6.555   6.587 -1.2996  1.4194 -0.8045
22426SOL    HW267457   8.694   6.573   6.733  1.5347  0.8586  0.7298
22427SOL     OW67458   0.132   5.512   0.925 -0.1620 -0.5516  0.0530
22427SOL    HW167459   0.179   5.583   0.977  0.0380 -0.0265 -0.8214
22427SOL    HW267460   0.035   5.534   0.919  0.1071  0.3926 -1.3556
22428SOL     OW67461   3.502   1.180   3.844 -0.4095 -0.2856  0.6095
22428SOL    HW167462   3.565   1.211   3.916 -1.4014 -0.4970  1.5847
22428SOL    HW267463   3.540   1.099   3.800  0.3215 -0.0166  0.7185
22429SOL     OW67464   2.528   0.351   4.184 -0.1091  0.0313  0.2429
22429SOL    HW167465   2.535   0.266   4.236 -0.5815  0.2863  0.7329
22429SOL    HW267466   2.443   0.350   4.130  0.2881 -0.1541 -0.3845
22430SOL     OW67467   1.275   5.811   7.697 -0.5994 -0.3952  0.1861
22430SOL    HW167468   1.253   5.742   7.767 -0.0011 -0.6586  0.1230
22430SOL    HW267469   1.312   5.892   7.741  0.9430 -1.0226  0.1219
22431SOL     OW67470   7.397   1.782   1.558  0.3409  0.7310 -0.1564
22431SOL    HW167471   7.306   1.748   1.583  1.0360 -1.5348 -0.4315
22431SOL    HW267472   7.419   1.862   1.613 -2.2175  2.0159 -0.8291
22432SOL     OW67473   2.006   0.257   2.883  0.3153 -0.0046  0.5115
22432SOL    HW167474   1.946   0.205   2.944  0.0156  0.3735  0.5411
22432SOL    HW267475   1.951   0.319   2.827  0.6000 -0.2717 -0.0714
22433SOL     OW67476   0.809   1.832   0.596 -0.3436  0.3527  0.3570
22433SOL    HW167477   0.792   1.844   0.498 -2.2368 -1.0887  0.4503
22433SOL    HW267478   0.778   1.913   0.645 -0.8345  0.4572 -0.1132
22434SOL     OW67479   6.697   8.686   8.148  0.2681  0.2291  0.5717
22434SOL    HW167480   6.696   8.740   8.232  1.2690  0.7532  0.2656
22434SOL    HW267481   6.609   8.694   8.102 -0.2343  0.0555  1.4918
22435SOL     OW67482   4.186   2.944   3.656  0.5070 -0.3390 -0.5897
22435SOL    HW167483   4.205   3.010   3.728 -0.5851  0.4758 -1.0227
22435SOL    HW267484   4.100   2.967   3.612 -0.1090 -2.2747 -0.5022
22436SOL     OW67485   4.640   8.405   0.125  0.4730  0.0512  0.1574
22436SOL    HW167486   4.733   8.423   0.090  0.9489  0.2743  1.4797
22436SOL    HW267487   4.575   8.408   0.049  1.1234  2.9112 -0.4328
22437SOL     OW67488   3.629   1.651   5.148 -0.6559 -0.6350  0.2632
22437SOL    HW167489   3.695   1.718   5.115 -0.4627 -1.8277 -1.9084
22437SOL    HW267490   3.676   1.582   5.204 -0.4605 -0.2759  0.5463
22438SOL     OW67491   2.518   1.563   5.005 -0.0282  0.5280 -0.4296
22438SOL    HW167492   2.566   1.631   4.950 -1.2642  1.4556 -0.4147
22438SOL    HW267493   2.477   1.608   5.085 -0.6507 -0.2831 -0.2852
22439SOL     OW67494   7.958   4.934   2.354 -0.0273  0.1786 -0.7995
22439SOL    HW167495   7.991   5.027   2.369  0.0367 -0.0761  0.8226
22439SOL    HW267496   8.025   4.869   2.389 -0.5514 -0.4490 -0.9441
22440SOL     OW67497   8.611   6.272   3.899  0.0163 -0.5060 -0.5739
22440SOL    HW167498   8.612   6.283   3.998  1.2010 -1.2607 -0.4739
22440SOL    HW267499   8.543   6.333   3.858  0.0059  0.3124  0.6401
22441SOL     OW67500   7.935   8.779   0.816  0.2493 -0.0499 -0.0139
22441SOL    HW167501   7.957   8.682   0.809 -0.3268 -0.2205  0.4673
22441SOL    HW267502   7.882   8.807   0.735  1.1898  0.0853 -0.5947
22442SOL     OW67503   3.319   0.948   6.293 -0.0635  0.2423  0.6355
22442SOL    HW167504   3.414   0.976   6.309 -0.3202  0.2224  2.2979
22442SOL    HW267505   3.318   0.865   6.237  1.0377 -1.3051  2.7709
22443SOL     OW67506   4.289   8.024   8.491 -0.3505  0.4486  0.5679
22443SOL    HW167507   4.311   8.121   8.481  2.2290 -0.1401 -0.3310
22443SOL    HW267508   4.278   8.002   8.588 -1.2205  1.6557  0.7646
22444SOL     OW67509   8.327   4.545   7.636  0.2625 -0.7098 -0.2680
22444SOL    HW167510   8.426   4.560   7.636  0.3595 -0.5941  3.0841
22444SOL    HW267511   8.284   4.602   7.565  2.2142  2.6701  1.0134
22445SOL     OW67512   2.523   3.816   4.090 -0.1174 -0.0654  0.0749
22445SOL    HW167513   2.464   3.892   4.062 -1.1740  0.0341  2.3095
22445SOL    HW267514   2.612   3.853   4.119 -0.9442  0.5369  2.0636
22446SOL     OW67515   4.833   6.531   1.804  0.2070 -0.5708 -0.5846
22446SOL    HW167516   4.862   6.607   1.863 -2.2828  0.8409 -1.0032
22446SOL    HW267517   4.754   6.485   1.845 -0.6054 -0.5494 -2.0350
22447SOL     OW67518   0.834   0.841   5.245  0.2612 -0.1757  0.5868
22447SOL    HW167519   0.894   0.814   5.319  1.4047  0.1057 -0.2036
22447SOL    HW267520   0.840   0.775   5.170 -0.6364 -0.2946  0.6061
22448SOL     OW67521   2.032   3.588   6.167 -0.1039 -0.2080 -0.6981
22448SOL    HW167522   2.079   3.589   6.255 -2.3103  0.2929  0.5435
22448SOL    HW267523   2.014   3.681   6.137  0.0594 -0.3829 -1.3517
22449SOL     OW67524   7.134   8.100   5.988  0.4320  0.0548 -0.1693
22449SOL    HW167525   7.070   8.173   5.965 -0.3257 -1.3618 -2.9232
22449SOL    HW267526   7.198   8.134   6.057 -1.5018  2.4180  0.6282
22450SOL     OW67527   0.669   2.444   0.365  0.8700  0.4636 -0.2170
22450SOL    HW167528   0.604   2.464   0.438 -0.0950  4.1313 -1.8624
22450SOL    HW267529   0.626   2.384   0.298  0.2997  0.3497  0.2408
22451SOL     OW67530   4.353   2.971   4.728  0.0345  0.3955 -0.0772
22451SOL    HW167531   4.302   3.038   4.783  2.1036 -0.1508  2.7652
22451SOL    HW267532   4.309   2.882   4.735 -0.1987  0.5147 -0.0072
22452SOL     OW67533   0.412   0.182   3.690  0.0106  0.0727  0.2219
22452SOL    HW167534   0.495   0.232   3.669 -0.3867  1.1945  1.1862
22452SOL    HW267535   0.406   0.167   3.789 -0.6210 -0.5586  0.0973
22453SOL     OW67536   0.450   1.531   6.845  0.5069  0.1749  0.1670
22453SOL    HW167537   0.377   1.462   6.845  2.0305 -1.5160  0.1790
22453SOL    HW267538   0.480   1.548   6.751 -0.1311  1.1470  0.1289
22454SOL     OW67539   4.333   3.600   4.249  0.5492  0.2103 -0.1515
22454SOL    HW167540   4.254   3.583   4.190  0.6435  2.1610 -0.9406
22454SOL    HW267541   4.403   3.531   4.232 -0.2080 -0.3827 -0.9142
22455SOL     OW67542   2.060   2.956   6.400 -0.4726  0.8118 -0.5640
22455SOL    HW167543   1.982   2.987   6.454 -1.1198  0.4682 -1.2765
22455SOL    HW267544   2.141   3.009   6.425 -0.3124 -0.4808  1.9624
22456SOL     OW67545   4.041   1.584   8.632 -0.0513 -0.4998 -0.0617
22456SOL    HW167546   4.024   1.495   8.589 -1.4314 -1.3610  2.0788
22456SOL    HW267547   4.076   1.569   8.725 -0.6613  1.1740  0.4666
22457SOL     OW67548   3.817   0.724   1.364  0.1474 -0.4799 -0.2613
22457SOL    HW167549   3.917   0.730   1.363  0.0737  2.1769 -1.8890
22457SOL    HW267550   3.784   0.700   1.273 -0.7319  0.2733 -0.1544
22458SOL     OW67551   1.330   7.140   5.345 -0.2060 -0.2522  0.1141
22458SOL    HW167552   1.333   7.216   5.410 -1.8386 -2.1289  2.5689
22458SOL    HW267553   1.380   7.062   5.382  1.5459 -0.4465 -2.4062
22459SOL     OW67554   3.398   2.034   0.486  0.2404  0.5591  0.2299
22459SOL    HW167555   3.346   2.117   0.501  1.6765  1.2328  1.7453
22459SOL    HW267556   3.493   2.048   0.513  0.5531 -1.5375  0.4485
22460SOL     OW67557   2.348   4.378   8.784  0.6767  0.1084  0.1803
22460SOL    HW167558   2.365   4.280   8.776 -1.7588 -0.2958 -0.7893
22460SOL    HW267559   2.383   4.425   8.703 -0.0813 -0.2604 -0.3588
22461SOL     OW67560   6.180   7.660   7.194 -0.2544 -0.1831  0.3393
22461SOL    HW167561   6.203   7.562   7.195 -1.0072 -0.3689  0.0366
22461SOL    HW267562   6.263   7.713   7.184  0.1482 -0.8004  0.3242
22462SOL     OW67563   8.333   2.392   1.995  0.3239  0.1345  0.3026
22462SOL    HW167564   8.309   2.488   2.014 -1.3722  0.1369 -1.5662
22462SOL    HW267565   8.250   2.337   1.991  1.2515 -1.3999  1.0024
22463SOL     OW67566   7.439   7.293   7.706  0.0095  0.1922  0.7805
22463SOL    HW167567   7.477   7.253   7.790 -0.1215  0.1622  0.8254
22463SOL    HW267568   7.367   7.358   7.730 -0.1709  0.0289  0.6814
22464SOL     OW67569   8.801   4.275   8.418 -0.9224 -0.0199 -0.2048
22464SOL    HW167570   8.743   4.336   8.473 -0.7677 -0.3951  0.3915
22464SOL    HW267571   8.743   4.216   8.362 -1.1304 -0.3984  0.3928
22465SOL     OW67572   6.133   8.446   6.026  0.3148 -0.4879 -0.0798
22465SOL    HW167573   6.120   8.379   5.953  1.3013 -1.1793  0.3623
22465SOL    HW267574   6.231   8.457   6.044  0.0762 -2.2995  2.8906
22466SOL     OW67575   5.657   6.165   6.330  0.6833 -0.2174  0.3689
22466SOL    HW167576   5.670   6.261   6.355  0.0294 -0.2121  0.7187
22466SOL    HW267577   5.711   6.107   6.391  0.9628 -0.0775  0.2529
22467SOL     OW67578   4.210   5.450   7.656  0.1633  0.2279  0.4165
22467SOL    HW167579   4.302   5.412   7.654  0.2907  0.5217 -1.2756
22467SOL    HW267580   4.172   5.443   7.748  1.0135 -1.9656  0.6502
22468SOL     OW67581   6.942   4.610   7.339 -0.0332 -0.3085  0.2705
22468SOL    HW167582   6.987   4.678   7.281 -1.1947  0.2698 -0.0016
22468SOL    HW267583   6.845   4.606   7.315 -0.1907 -1.3013  1.0242
22469SOL     OW67584   2.377   1.370   7.069 -0.1377  0.4570 -0.5170
22469SOL    HW167585   2.299   1.375   7.007 -2.4428  0.3400  2.1936
22469SOL    HW267586   2.397   1.274   7.090 -2.5401  0.4839  2.4838
22470SOL     OW67587   4.849   1.538   2.233 -0.7483  0.8613  0.3483
22470SOL    HW167588   4.837   1.501   2.141  0.5135 -0.4111  0.6465
22470SOL    HW267589   4.947   1.540   2.256 -1.0558  0.7512  1.8131
22471SOL     OW67590   2.326   5.159   7.664  0.0461 -0.4206  0.2114
22471SOL    HW167591   2.239   5.124   7.630 -0.3116  0.6108  0.0357
22471SOL    HW267592   2.317   5.186   7.759  0.2766 -0.6484  0.2999
22472SOL     OW67593   1.450   8.468   7.899  0.6652  0.6874  0.3367
22472SOL    HW167594   1.407   8.432   7.983  1.0871  1.9916  1.1453
22472SOL    HW267595   1.516   8.402   7.864 -0.7389 -0.6066  0.0559
22473SOL     OW67596   4.053   5.980   0.899  0.0649  0.1278 -0.5729
22473SOL    HW167597   4.131   5.955   0.843 -0.1788  2.1808 -1.8982
22473SOL    HW267598   4.084   6.002   0.992  0.9894  0.4296 -0.9467
22474SOL     OW67599   5.815   3.087   7.981  0.1238 -0.0456  0.5823
22474SOL    HW167600   5.732   3.100   8.036 -0.1523  2.8669 -0.3593
22474SOL    HW267601   5.860   3.001   8.009 -3.3613 -1.9825  0.8105
22475SOL     OW67602   4.558   8.448   3.195  0.1211  0.1522 -0.0937
22475SOL    HW167603   4.645   8.466   3.241  0.0215  0.9539 -0.2005
22475SOL    HW267604   4.554   8.499   3.109 -1.4129  2.1369  1.0447
22476SOL     OW67605   0.768   3.292   0.368 -0.2314 -0.3766  0.3008
22476SOL    HW167606   0.846   3.299   0.430 -0.6412  0.0897  0.7666
22476SOL    HW267607   0.747   3.196   0.351 -0.2436 -0.5086  1.0459
22477SOL     OW67608   4.862   6.846   4.535 -0.1372 -0.2891  0.3854
22477SOL    HW167609   4.769   6.864   4.567 -0.4656  0.9520 -1.1255
22477SOL    HW267610   4.864   6.759   4.485 -0.6874  0.0558 -0.2597
22478SOL     OW67611   4.358   7.600   8.336  0.1474 -0.0793 -0.1830
22478SOL    HW167612   4.259   7.606   8.351  0.2018  1.0280 -0.1550
22478SOL    HW267613   4.377   7.550   8.251 -0.4098 -0.7167  0.0589
22479SOL     OW67614   5.904   3.638   4.993 -0.6911 -0.5426 -0.0111
22479SOL    HW167615   5.914   3.685   5.081  0.6881  0.7900 -0.8150
22479SOL    HW267616   5.978   3.572   4.982  0.2722  0.6450 -0.9236
22480SOL     OW67617   1.626   7.562   1.589 -0.2110 -0.0262  0.3981
22480SOL    HW167618   1.583   7.472   1.581 -0.0060 -0.3126  2.2673
22480SOL    HW267619   1.617   7.596   1.682  4.8139 -0.7441  1.4540
22481SOL     OW67620   1.715   0.798   2.737  0.5537  0.0146 -0.6835
22481SOL    HW167621   1.642   0.851   2.780  0.5236 -1.4821  1.2816
22481SOL    HW267622   1.682   0.759   2.651 -1.9558 -2.5981  1.2490
22482SOL     OW67623   0.800   3.400   2.553 -0.0063 -0.1963 -0.1316
22482SOL    HW167624   0.755   3.345   2.482  1.9932 -3.0393  0.6221
22482SOL    HW267625   0.776   3.364   2.643  3.4191 -1.7650  0.3224
22483SOL     OW67626   8.301   4.935   2.902  0.3770  0.1706  0.1467
22483SOL    HW167627   8.332   4.982   2.819 -0.4012 -0.0355 -0.2712
22483SOL    HW267628   8.256   4.850   2.877  1.8451 -0.8795  0.9041
22484SOL     OW67629   3.201   1.379   4.832  0.1477 -0.0774 -0.1042
22484SOL    HW167630   3.156   1.395   4.920 -1.5152 -1.1610 -0.6842
22484SOL    HW267631   3.223   1.466   4.789  0.9125  0.4659  1.3238
22485SOL     OW67632   8.466   5.546   6.841  0.3347  0.7389 -0.3496
22485SOL    HW167633   8.490   5.572   6.747  0.1830  0.8665 -0.3531
22485SOL    HW267634   8.378   5.585   6.864 -0.6658 -1.0731 -0.9095
22486SOL     OW67635   8.358   1.642   2.538  0.4161  0.1519 -0.3518
22486SOL    HW167636   8.373   1.724   2.594 -0.0361 -0.2408  0.3676
22486SOL    HW267637   8.323   1.569   2.596 -0.0330 -0.2800 -1.1553
22487SOL     OW67638   1.757   2.245   5.337  0.1757  0.3734  0.1395
22487SOL    HW167639   1.737   2.313   5.407 -2.1111  0.2525 -0.3260
22487SOL    HW267640   1.716   2.157   5.363  3.0692 -0.9195  0.7398
22488SOL     OW67641   3.864   2.693   3.953 -0.6000  0.5335  0.0745
22488SOL    HW167642   3.928   2.617   3.952 -0.7845  0.3735 -1.3536
22488SOL    HW267643   3.891   2.761   3.885  0.2021  2.3246  2.0686
22489SOL     OW67644   5.986   7.167   2.963  0.1957  0.0520  0.2441
22489SOL    HW167645   6.034   7.079   2.956 -0.8490 -0.6628  1.4414
22489SOL    HW267646   6.041   7.230   3.018 -0.4612 -1.0114  2.2600
22490SOL     OW67647   2.795   8.614   0.838  0.3747  0.0605 -0.4098
22490SOL    HW167648   2.840   8.665   0.912  0.5318 -0.5171 -0.1033
22490SOL    HW267649   2.698   8.604   0.860 -0.0238  1.6588 -1.2618
22491SOL     OW67650   3.405   3.070   4.290 -0.1014 -0.2369 -0.4032
22491SOL    HW167651   3.411   3.152   4.232 -0.6453  0.2104  0.1662
22491SOL    HW267652   3.495   3.026   4.293  0.0582  0.0055 -1.1848
22492SOL     OW67653   0.713   2.027   6.197 -0.0982  0.4301  0.3524
22492SOL    HW167654   0.653   1.947   6.191 -2.2685  2.0025 -0.2352
22492SOL    HW267655   0.692   2.078   6.280 -0.4919  1.6493 -0.4648
22493SOL     OW67656   2.425   7.953   3.976  0.2183  0.1229  0.0071
22493SOL    HW167657   2.439   8.032   4.035  1.0851 -0.5443  0.7222
22493SOL    HW267658   2.510   7.933   3.926 -0.1027 -0.1327 -0.4453
22494SOL     OW67659   8.246   6.333   0.353 -0.0028  0.1550 -0.1290
22494SOL    HW167660   8.269   6.250   0.302 -1.4937  0.1958 -0.9267
22494SOL    HW267661   8.225   6.406   0.289 -2.3563  0.0882  0.4778
22495SOL     OW67662   0.251   1.357   4.993 -0.2980 -0.2467 -0.7841
22495SOL    HW167663   0.311   1.437   4.988  1.5404 -1.4516  0.6618
22495SOL    HW267664   0.289   1.283   4.936 -0.2697 -1.0795  0.2800
22496SOL     OW67665   7.217   0.569   5.702 -0.5920 -0.0306 -0.4508
22496SOL    HW167666   7.304   0.603   5.739 -1.3113  1.1724  0.1938
22496SOL    HW267667   7.208   0.472   5.722  0.5699 -0.1590 -0.4681
22497SOL     OW67668   2.650   0.955   4.723  0.0482 -0.7722  0.6719
22497SOL    HW167669   2.641   1.035   4.782  0.6900  0.4126 -0.7889
22497SOL    HW267670   2.746   0.928   4.717  0.4596  0.9760 -2.1215
22498SOL     OW67671   0.953   7.994   0.065 -0.2427  0.5011  0.4297
22498SOL    HW167672   0.941   8.093   0.063 -1.0830  0.4124 -1.4485
22498SOL    HW267673   1.050   7.972   0.056 -0.0939  1.1476  0.4213
22499SOL     OW67674   1.450   6.439   3.783 -0.0955 -0.0012  0.2908
22499SOL    HW167675   1.439   6.530   3.745 -0.1211  0.1407  0.6424
22499SOL    HW267676   1.361   6.400   3.804 -0.1757 -0.6657 -1.1665
22500SOL     OW67677   7.307   5.163   4.402 -0.4352 -0.1430  0.7138
22500SOL    HW167678   7.225   5.109   4.385  0.1792 -1.0070  0.4258
22500SOL    HW267679   7.329   5.218   4.322 -1.3130  0.8828  1.1676
22501SOL     OW67680   6.950   7.724   4.117 -0.0781 -0.0245 -0.6817
22501SOL    HW167681   6.874   7.661   4.137 -1.3213  1.4524 -0.5964
22501SOL    HW267682   6.936   7.764   4.027  0.1897  0.8261 -0.3508
22502SOL     OW67683   3.923   8.628   8.388  0.4859  0.3482 -0.1406
22502SOL    HW167684   3.851   8.631   8.458  1.3467 -0.7741  0.8451
22502SOL    HW267685   3.950   8.533   8.372  2.6936  0.8015  0.5451
22503SOL     OW67686   0.824   5.020   7.413 -1.1535 -0.3845  0.0063
22503SOL    HW167687   0.846   5.045   7.507  0.6813 -0.9625 -0.2323
22503SOL    HW267688   0.865   5.087   7.351  0.3401 -1.6992 -0.4767
22504SOL     OW67689   2.529   8.479   1.087  0.2140  0.0627  0.1033
22504SOL    HW167690   2.615   8.441   1.120  0.4287  0.9765  0.6419
22504SOL    HW267691   2.537   8.579   1.081 -0.1572 -0.0001 -1.7942
22505SOL     OW67692   7.868   7.721   1.381  0.2452  0.4065 -0.1269
22505SOL    HW167693   7.846   7.672   1.465  0.2225  1.7662  0.6773
22505SOL    HW267694   7.786   7.725   1.323 -0.2618  1.0877  0.6235
22506SOL     OW67695   8.109   2.214   1.593 -0.3733 -0.5102 -0.2860
22506SOL    HW167696   8.026   2.269   1.579 -0.3901  0.0028  1.6502
22506SOL    HW267697   8.143   2.184   1.504 -2.0070  0.1872 -1.2040
22507SOL     OW67698   5.963   4.081   3.025 -0.2865  0.7042  0.2246
22507SOL    HW167699   5.961   4.100   2.927  3.0103 -0.0777 -0.1125
22507SOL    HW267700   5.914   3.996   3.043  1.1508 -0.4899 -1.1812
22508SOL     OW67701   4.979   1.637   8.659  0.5532 -0.3468 -0.3224
22508SOL    HW167702   4.879   1.638   8.649  0.7048 -1.6440 -2.3812
22508SOL    HW267703   5.004   1.694   8.738 -1.7360  0.6356 -0.2070
22509SOL     OW67704   1.698   7.425   5.209  0.1404 -0.6674 -0.2758
22509SOL    HW167705   1.656   7.445   5.298  0.0988 -0.7638 -0.2743
22509SOL    HW267706   1.716   7.327   5.202 -0.8350 -0.8280 -0.7975
22510SOL     OW67707   8.461   6.490   2.839 -0.0019 -0.0548  0.6148
22510SOL    HW167708   8.419   6.400   2.844  0.2610 -0.1251  1.9382
22510SOL    HW267709   8.448   6.528   2.748 -0.3371 -1.3174  0.1174
22511SOL     OW67710   6.655   2.701   8.417  0.1250 -0.2286 -0.1650
22511SOL    HW167711   6.592   2.774   8.391  0.7312  1.1358  1.9238
22511SOL    HW267712   6.605   2.631   8.469  0.0419  0.0844  0.1786
22512SOL     OW67713   1.617   0.440   1.860 -0.2138 -0.0857  0.2715
22512SOL    HW167714   1.546   0.496   1.818 -1.6502 -0.1660  2.4758
22512SOL    HW267715   1.706   0.464   1.821 -1.1030  1.8936 -0.6593
22513SOL     OW67716   3.022   2.780   6.258 -0.3203 -0.0520  0.0039
22513SOL    HW167717   3.106   2.827   6.286 -0.3624  0.6846 -1.0307
22513SOL    HW267718   2.973   2.837   6.191 -0.4500 -1.5025 -1.1897
22514SOL     OW67719   2.525   1.197   1.219  0.1418  0.2156 -0.3348
22514SOL    HW167720   2.585   1.250   1.281  1.7326 -0.5536 -1.1556
22514SOL    HW267721   2.475   1.260   1.160 -0.0876  0.8956  0.5620
22515SOL     OW67722   7.734   2.947   2.491  0.0795 -0.4638 -0.2337
22515SOL    HW167723   7.668   2.938   2.565 -2.0530 -0.7874 -2.0539
22515SOL    HW267724   7.790   3.028   2.505 -3.2199  2.0413 -0.3608
22516SOL     OW67725   3.215   3.172   2.895  0.3584  0.3039 -0.1629
22516SOL    HW167726   3.236   3.148   2.990 -0.7293 -2.0452 -0.4494
22516SOL    HW267727   3.293   3.147   2.837 -0.0993 -1.0951 -0.2255
22517SOL     OW67728   0.818   3.490   5.970  0.2065 -0.4153 -0.4225
22517SOL    HW167729   0.782   3.577   5.936  0.3532 -0.0871  0.2474
22517SOL    HW267730   0.743   3.435   6.007  0.4126  0.4751  1.4296
22518SOL     OW67731   8.592   0.977   3.808 -0.3948  0.0459  0.3828
22518SOL    HW167732   8.678   0.963   3.758 -1.4765 -1.1514 -1.2223
22518SOL    HW267733   8.610   0.972   3.906  1.6852  1.7863  0.1937
22519SOL     OW67734   4.730   5.397   7.899 -0.2618  0.1778 -0.1922
22519SOL    HW167735   4.715   5.320   7.836 -0.2129 -0.9704  1.1628
22519SOL    HW267736   4.641   5.430   7.931 -0.2611  0.3532 -0.3676
22520SOL     OW67737   0.502   7.056   0.830  0.0111  0.0313 -0.1650
22520SOL    HW167738   0.536   7.075   0.922  0.6502  1.4187 -0.6551
22520SOL    HW267739   0.506   6.958   0.812  0.3221 -0.2031  1.1082
22521SOL     OW67740   5.189   3.717   6.840 -0.2532 -0.1312 -0.2085
22521SOL    HW167741   5.249   3.676   6.908  0.7927  1.0501 -0.3874
22521SOL    HW267742   5.094   3.695   6.861  0.1857 -1.4015  0.5091
22522SOL     OW67743   6.234   4.429   7.218  0.0583  0.3162 -0.0471
22522SOL    HW167744   6.290   4.425   7.135  0.0406  0.0851 -0.0495
22522SOL    HW267745   6.236   4.340   7.263  0.1925  0.4848  0.2846
22523SOL     OW67746   3.242   7.238   0.555  0.0005 -0.4018 -0.4816
22523SOL    HW167747   3.301   7.214   0.478  1.0176  0.4570  0.0079
22523SOL    HW267748   3.210   7.154   0.600  0.7929 -0.8792 -0.7955
22524SOL     OW67749   7.601   1.561   4.028  0.2350 -0.0197  0.0604
22524SOL    HW167750   7.579   1.464   4.043  1.4716 -0.3201  0.0268
22524SOL    HW267751   7.598   1.610   4.114  2.2516 -0.6750  0.5743
22525SOL     OW67752   6.891   1.875   5.497  0.5615  0.2446 -0.0658
22525SOL    HW167753   6.930   1.922   5.576 -1.0714  3.0768 -0.8034
22525SOL    HW267754   6.964   1.843   5.437  1.7810 -0.2996  1.6369
22526SOL     OW67755   6.497   3.794   1.402 -0.4781  0.4439 -0.2324
22526SOL    HW167756   6.453   3.713   1.364  0.8739 -1.1810  1.4882
22526SOL    HW267757   6.596   3.785   1.394 -0.2394  1.0650  1.6022
22527SOL     OW67758   5.371   3.246   2.428  0.4061 -0.6476  0.3181
22527SOL    HW167759   5.464   3.209   2.427  1.0402  0.8260  1.3307
22527SOL    HW267760   5.375   3.346   2.426 -1.1589 -0.5610  0.4159
22528SOL     OW67761   6.296   4.191   3.588 -0.0313  0.4545 -0.1339
22528SOL    HW167762   6.319   4.179   3.491 -1.9949 -1.5996 -0.4318
22528SOL    HW267763   6.303   4.103   3.635 -0.0371  1.2327  1.4026
22529SOL     OW67764   3.751   8.278   7.132 -0.0610  0.2346  0.1826
22529SOL    HW167765   3.766   8.235   7.221  0.5670 -0.7143 -0.3601
22529SOL    HW267766   3.668   8.240   7.091  0.7218 -0.8181 -0.4804
22530SOL     OW67767   3.748   0.983   3.706  0.1660 -0.0744 -0.5246
22530SOL    HW167768   3.662   0.934   3.693 -0.3924  1.2301 -2.1438
22530SOL    HW267769   3.793   0.950   3.789 -1.2948 -1.6303 -0.2931
22531SOL     OW67770   4.898   8.499   0.290 -0.6428 -0.0555 -0.3118
22531SOL    HW167771   4.857   8.589   0.299 -1.9815 -0.5384 -1.3884
22531SOL    HW267772   4.923   8.482   0.195  0.7279 -0.3638  0.0775
22532SOL     OW67773   6.822   5.244   7.295 -0.1921  0.4529 -0.1781
22532SOL    HW167774   6.778   5.162   7.260  0.3827 -0.6363  1.5173
22532SOL    HW267775   6.888   5.219   7.366  0.0219  2.3725  0.3637
22533SOL     OW67776   8.303   6.660   7.004 -0.0847 -0.0317  0.2021
22533SOL    HW167777   8.268   6.750   7.029 -1.6340  0.4380 -3.1098
22533SOL    HW267778   8.255   6.589   7.056 -0.1341  0.9479  1.5321
22534SOL     OW67779   1.157   1.018   3.530  0.2834 -0.1870 -0.3255
22534SOL    HW167780   1.191   0.990   3.439  0.4589  0.3673 -0.4364
22534SOL    HW267781   1.100   1.100   3.520  0.1973 -0.2021  0.0513
22535SOL     OW67782   2.634   7.965   2.331 -0.0355  0.1919  0.4958
22535SOL    HW167783   2.626   7.967   2.232  0.2363 -0.6837  0.4445
22535SOL    HW267784   2.574   7.894   2.368  0.8705 -0.4186  0.8297
22536SOL     OW67785   3.174   2.356   2.261  0.2439 -0.4229 -0.0024
22536SOL    HW167786   3.254   2.297   2.271  0.3388 -0.5161 -1.1920
22536SOL    HW267787   3.160   2.377   2.164 -0.7950  0.1201  0.2537
22537SOL     OW67788   2.400   0.907   5.858 -1.0158  0.1288 -0.1038
22537SOL    HW167789   2.467   0.941   5.924 -1.2654  0.1169  0.1585
22537SOL    HW267790   2.342   0.838   5.901 -1.2613  0.2097 -0.2996
22538SOL     OW67791   6.256   6.215   3.958 -0.0454  0.2925  0.8217
22538SOL    HW167792   6.172   6.179   3.998 -1.3216  1.0872 -0.9826
22538SOL    HW267793   6.333   6.192   4.016 -1.1901 -2.4524  1.4133
22539SOL     OW67794   2.052   8.385   2.122 -0.1707  0.1065 -0.0326
22539SOL    HW167795   1.997   8.368   2.040 -1.8616  2.1186  0.5868
22539SOL    HW267796   2.002   8.446   2.183  1.1069 -1.1748  2.4570
22540SOL     OW67797   2.270   7.010   0.272  0.0472  0.1568 -0.2866
22540SOL    HW167798   2.186   6.956   0.280  0.3564 -0.3439 -0.4057
22540SOL    HW267799   2.339   6.972   0.334  0.9285 -0.8358 -1.8341
22541SOL     OW67800   7.879   3.992   5.132  0.6872 -0.1662  0.4976
22541SOL    HW167801   7.789   3.998   5.177  0.0350  0.5989 -0.8530
22541SOL    HW267802   7.906   4.083   5.100  0.6911 -0.8034 -1.4365
22542SOL     OW67803   1.975   3.037   8.800  0.1164  0.4801  0.8214
22542SOL    HW167804   1.885   3.076   8.784  0.3489  0.5734 -0.3179
22542SOL    HW267805   2.029   3.042   8.716  0.3927 -1.6399  0.8185
22543SOL     OW67806   4.913   0.433   5.966 -0.1469  0.6412 -0.2353
22543SOL    HW167807   4.845   0.470   6.031 -0.7864 -1.2322  0.2209
22543SOL    HW267808   4.866   0.401   5.884  0.2288 -0.2059 -0.1289
22544SOL     OW67809   6.808   5.080   5.207  0.1915 -0.1677 -0.2479
22544SOL    HW167810   6.849   4.989   5.212  0.3482 -0.1732 -1.3648
22544SOL    HW267811   6.872   5.147   5.245  0.3496 -0.4383 -0.0320
22545SOL     OW67812   3.920   6.701   6.366  0.5465 -0.3298  0.4472
22545SOL    HW167813   3.888   6.733   6.455  2.3600 -2.7381  2.0935
22545SOL    HW267814   4.018   6.720   6.357  0.0175  1.7387 -2.0038
22546SOL     OW67815   7.899   7.008   7.952 -0.2062 -0.4364 -0.3612
22546SOL    HW167816   7.847   6.972   8.029 -0.5625  1.0013  0.0973
22546SOL    HW267817   7.985   7.047   7.985  0.4340 -1.3362 -0.9188
22547SOL     OW67818   6.790   2.784   0.115 -0.0385  0.2413  0.3608
22547SOL    HW167819   6.762   2.784   0.019  0.7928 -0.2872  0.1037
22547SOL    HW267820   6.860   2.714   0.129  0.5247  0.9361  1.1512
22548SOL     OW67821   7.974   5.704   0.285  0.8081 -0.5960 -0.6566
22548SOL    HW167822   8.014   5.763   0.215 -1.4456  0.1596 -1.4011
22548SOL    HW267823   7.979   5.749   0.374  0.8305 -0.1420 -0.8869
22549SOL     OW67824   4.056   2.451   0.952 -0.2642  0.2507  0.0317
22549SOL    HW167825   4.016   2.529   1.000 -2.0946 -0.3012 -0.4873
22549SOL    HW267826   4.119   2.402   1.012  0.5333  1.8244  0.5177
22550SOL     OW67827   5.184   3.594   2.938  0.5804 -0.2148  0.1402
22550SOL    HW167828   5.160   3.540   2.858 -1.0890  0.3572  0.2071
22550SOL    HW267829   5.266   3.556   2.981  1.2489 -0.7919 -1.5580
22551SOL     OW67830   2.675   7.617   6.862  0.5449 -0.1868 -0.1146
22551SOL    HW167831   2.693   7.522   6.840 -2.3294 -0.9286  0.2462
22551SOL    HW267832   2.580   7.639   6.839  0.7658  2.2487  0.9451
22552SOL     OW67833   4.195   4.134   7.125  0.5566  0.3788 -0.1436
22552SOL    HW167834   4.106   4.172   7.103  1.1432  1.0190 -1.4918
22552SOL    HW267835   4.245   4.198   7.183 -0.0058 -0.1827  1.0035
22553SOL     OW67836   7.089   7.451   3.596 -0.4418  0.2058  0.4523
22553SOL    HW167837   7.133   7.419   3.680 -3.5502 -2.1864  1.3305
22553SOL    HW267838   7.102   7.383   3.524 -2.3397 -0.3972  0.6436
22554SOL     OW67839   1.842   0.225   4.307 -0.5030  0.3356  0.5376
22554SOL    HW167840   1.793   0.256   4.226 -0.7841 -1.0616  0.1595
22554SOL    HW267841   1.874   0.131   4.294 -0.8048 -0.0207  2.1533
22555SOL     OW67842   5.226   2.098   2.353 -0.4677 -0.4093  0.0597
22555SOL    HW167843   5.192   2.110   2.447 -0.2591  0.7665  0.0003
22555SOL    HW267844   5.317   2.139   2.346 -0.8586  0.3393 -0.8775
22556SOL     OW67845   6.671   8.764   7.180 -0.5640 -0.3831  0.0601
22556SOL    HW167846   6.690   8.675   7.221  1.5507  0.6089  1.3919
22556SOL    HW267847   6.755   8.802   7.141 -1.4989  0.8907 -0.7970
22557SOL     OW67848   0.893   0.653   8.568  0.3067  0.9603  0.1477
22557SOL    HW167849   0.913   0.555   8.566  0.8822  1.0405  1.2295
22557SOL    HW267850   0.892   0.689   8.475  2.7955  0.4537 -0.1452
22558SOL     OW67851   7.876   1.572   2.432 -0.0402 -0.2569  0.1240
22558SOL    HW167852   7.899   1.536   2.522 -0.3239  0.3611  0.4539
22558SOL    HW267853   7.956   1.616   2.391  0.4715 -1.7348 -0.5353
22559SOL     OW67854   2.682   6.062   7.925  0.7892  0.8336 -0.5551
22559SOL    HW167855   2.601   6.103   7.967 -1.0011 -1.5091 -1.5215
22559SOL    HW267856   2.724   5.997   7.989  0.1431 -0.1148 -1.0706
22560SOL     OW67857   7.598   1.508   6.781  0.0393 -0.1151  0.0280
22560SOL    HW167858   7.664   1.463   6.722  0.0692 -1.1755  0.8487
22560SOL    HW267859   7.615   1.607   6.781 -0.6805  0.1052 -2.6177
22561SOL     OW67860   5.900   7.958   4.282 -0.2038 -0.7478 -0.1784
22561SOL    HW167861   5.955   7.910   4.350 -0.2687 -0.7183 -0.1051
22561SOL    HW267862   5.949   8.040   4.252  0.7210 -1.7561 -1.5977
22562SOL     OW67863   2.373   8.689   7.248 -0.7731  1.0163 -0.3874
22562SOL    HW167864   2.453   8.631   7.231 -1.1484  0.1832  0.5599
22562SOL    HW267865   2.331   8.715   7.161 -0.4676  0.0362 -0.8395
22563SOL     OW67866   6.308   4.072   0.131  0.1459  0.2408  0.5338
22563SOL    HW167867   6.350   4.152   0.174  1.4496  0.0395 -0.3055
22563SOL    HW267868   6.311   3.995   0.194  2.5846 -0.2168 -0.0297
22564SOL     OW67869   5.171   6.092   5.278  0.0200 -0.5646  0.1769
22564SOL    HW167870   5.253   6.138   5.312 -0.9175  1.5117 -0.2499
22564SOL    HW267871   5.189   6.055   5.187  0.3607  0.2862 -0.1130
22565SOL     OW67872   2.901   8.008   8.749 -0.0276  0.6046  0.2325
22565SOL    HW167873   2.939   7.921   8.780 -0.8366  0.6363  1.3626
22565SOL    HW267874   2.895   8.008   8.649 -0.9985 -1.0790  0.2488
22566SOL     OW67875   0.946   1.924   6.063  0.2019  0.1315 -0.1177
22566SOL    HW167876   0.929   1.828   6.037  1.4995 -0.5817  1.4884
22566SOL    HW267877   0.858   1.969   6.080 -0.4053 -1.0608  0.0749
22567SOL     OW67878   2.590   4.074   7.193  0.2733  0.0305 -0.1509
22567SOL    HW167879   2.688   4.052   7.189  0.1299 -0.7049  0.2349
22567SOL    HW267880   2.540   3.997   7.233 -0.6441 -0.1795 -1.6184
22568SOL     OW67881   3.152   3.370   0.303  0.2619 -0.3312  0.6085
22568SOL    HW167882   3.207   3.403   0.226 -1.3004  1.1103  0.0351
22568SOL    HW267883   3.209   3.365   0.385  1.8260 -1.3673 -0.4836
22569SOL     OW67884   2.340   1.344   0.299  0.2757 -0.2396 -0.0138
22569SOL    HW167885   2.349   1.398   0.216  0.1595  1.6642  1.1540
22569SOL    HW267886   2.268   1.383   0.357  0.4515 -1.4278  1.0667
22570SOL     OW67887   4.802   5.680   7.441  0.6534 -0.2537 -0.0374
22570SOL    HW167888   4.843   5.672   7.531  0.1607 -1.6736  0.0936
22570SOL    HW267889   4.873   5.670   7.371  1.0140  0.7197  0.1757
22571SOL     OW67890   2.148   2.904   0.439  0.0617 -0.1071  0.0231
22571SOL    HW167891   2.095   2.957   0.373  0.1786 -1.1219 -0.9107
22571SOL    HW267892   2.243   2.937   0.440 -0.1206  0.4237  0.2744
22572SOL     OW67893   1.229   4.100   6.357 -0.5373  0.0839  0.3766
22572SOL    HW167894   1.137   4.060   6.354 -0.7343  0.5657 -2.1889
22572SOL    HW267895   1.296   4.032   6.328 -0.4264  0.5041 -0.3773
22573SOL     OW67896   3.552   1.414   5.654  0.4483 -0.3494  0.0545
22573SOL    HW167897   3.531   1.323   5.690  0.0117 -0.1750  0.2508
22573SOL    HW267898   3.559   1.479   5.730 -1.4450  0.2195 -0.2080
22574SOL     OW67899   8.608   3.075   0.492 -0.4584  0.4718 -0.0527
22574SOL    HW167900   8.689   3.075   0.434 -2.1157 -0.9532 -2.5371
22574SOL    HW267901   8.539   3.136   0.453 -1.2132  0.4304  1.1425
22575SOL     OW67902   6.453   5.066   7.910 -0.0061 -0.0204 -0.3096
22575SOL    HW167903   6.550   5.046   7.928 -0.0569  0.5455  0.6795
22575SOL    HW267904   6.425   5.145   7.965 -0.5141  1.0728 -2.0703
22576SOL     OW67905   7.722   7.742   0.134  0.5179  0.2901 -0.3313
22576SOL    HW167906   7.719   7.842   0.134 -0.0124  0.2893  0.6408
22576SOL    HW267907   7.764   7.710   0.219 -0.9984 -0.3310  0.2215
22577SOL     OW67908   3.324   0.705   8.749 -0.7073 -0.0108  0.2444
22577SOL    HW167909   3.399   0.645   8.778 -0.2945 -0.2671 -1.2988
22577SOL    HW267910   3.352   0.800   8.760  0.7491 -0.0508 -2.3274
22578SOL     OW67911   7.413   0.752   1.679 -0.0954  0.7530  0.0409
22578SOL    HW167912   7.422   0.665   1.728  1.4699  0.7763 -0.1661
22578SOL    HW267913   7.351   0.740   1.602 -1.0234  0.2081  0.8448
22579SOL     OW67914   0.101   3.909   1.838  0.2964  0.4745 -0.1240
22579SOL    HW167915   0.105   3.829   1.777  1.1336  0.6432 -0.2995
22579SOL    HW267916   0.042   3.979   1.796 -0.3742 -0.0063 -0.0081
22580SOL     OW67917   6.617   0.680   0.911  0.3417  0.0415 -1.1478
22580SOL    HW167918   6.593   0.591   0.871 -2.0782  0.7358 -1.4049
22580SOL    HW267919   6.579   0.753   0.855  0.1355  1.1620  0.3911
22581SOL     OW67920   5.997   2.812   0.436 -0.8594 -0.2268  0.5299
22581SOL    HW167921   5.981   2.790   0.532 -1.4671 -2.9090 -0.1009
22581SOL    HW267922   6.020   2.728   0.386  0.6600  1.2811 -1.4641
22582SOL     OW67923   0.196   8.853   4.036 -0.1252 -0.5111 -0.4975
22582SOL    HW167924   0.142   8.824   3.957  2.2458 -2.7107 -1.4619
22582SOL    HW267925   0.259   8.925   4.008 -1.7467  1.3296  0.3762
22583SOL     OW67926   1.346   3.781   7.559  0.0123 -0.0982  0.0101
22583SOL    HW167927   1.286   3.795   7.638  1.7236 -2.1752  1.7908
22583SOL    HW267928   1.293   3.744   7.483 -0.9219 -2.8121  1.8248
22584SOL     OW67929   7.947   2.300   3.019  0.4473 -0.0734 -0.2020
22584SOL    HW167930   7.881   2.365   2.981  0.1252 -0.6940 -0.7236
22584SOL    HW267931   8.002   2.345   3.090 -0.4827  0.4760  0.1816
22585SOL     OW67932   8.306   6.964   7.931  0.1888  0.1869 -0.5616
22585SOL    HW167933   8.337   7.023   7.856  0.7655 -0.8471 -1.1531
22585SOL    HW267934   8.380   6.951   7.997 -0.2261  0.8519  0.0534
22586SOL     OW67935   2.742   0.805   3.619  0.1719 -0.3269 -0.9605
22586SOL    HW167936   2.718   0.724   3.566  4.2363 -0.4602 -3.0135
22586SOL    HW267937   2.773   0.877   3.556 -0.2156  1.6295  0.9864
22587SOL     OW67938   6.902   6.539   3.870  0.2317  0.0862 -0.1157
22587SOL    HW167939   6.854   6.620   3.903 -0.2108 -0.5062  0.7182
22587SOL    HW267940   6.887   6.530   3.771 -1.1338  0.0739  0.0809
22588SOL     OW67941   5.731   0.782   8.413  0.1798 -0.2883  0.1910
22588SOL    HW167942   5.688   0.821   8.495  1.5003 -0.6846  1.1038
22588SOL    HW267943   5.829   0.803   8.413  0.8291 -2.9001  0.3376
22589SOL     OW67944   7.172   4.649   4.884 -0.0883  0.0088 -0.1407
22589SOL    HW167945   7.086   4.599   4.882 -1.4879  2.2215  0.8382
22589SOL    HW267946   7.219   4.630   4.971 -0.1778 -0.2653 -0.1512
22590SOL     OW67947   8.041   7.116   7.076 -0.1840 -0.2257  0.4725
22590SOL    HW167948   8.075   7.161   6.994 -0.7307  0.0717  0.4041
22590SOL    HW267949   8.113   7.059   7.115  1.1277  1.9718  1.4988
22591SOL     OW67950   4.505   0.595   4.604  0.0862 -0.6180 -0.2085
22591SOL    HW167951   4.561   0.560   4.679 -0.3101  0.3269  0.5534
22591SOL    HW267952   4.454   0.520   4.563 -1.2065 -0.8978  1.7612
22592SOL     OW67953   4.197   0.461   4.785  0.2016  0.4953 -0.5393
22592SOL    HW167954   4.151   0.467   4.696  0.0245  2.0841 -0.3664
22592SOL    HW267955   4.175   0.542   4.839 -0.4068 -0.8611  1.3261
22593SOL     OW67956   4.998   0.022   2.672 -0.3270 -0.2340  0.3340
22593SOL    HW167957   5.080  -0.032   2.690  0.8082  1.3942  0.2542
22593SOL    HW267958   4.921  -0.039   2.657  0.8698 -1.8171  0.3592
22594SOL     OW67959   7.705   8.275   4.711  0.2793  0.8413  0.6459
22594SOL    HW167960   7.720   8.305   4.617  1.7508 -1.7775 -0.0578
22594SOL    HW267961   7.759   8.332   4.773  0.0530  1.9877 -0.1826
22595SOL     OW67962   8.721   1.135   3.521 -0.0005 -0.2226 -0.5789
22595SOL    HW167963   8.624   1.153   3.541  0.1618 -1.7557  1.9976
22595SOL    HW267964   8.728   1.085   3.434 -1.5731 -0.7103 -0.4524
22596SOL     OW67965   7.068   5.887   8.826 -0.5513 -0.6523 -0.1899
22596SOL    HW167966   7.067   5.859   8.730  0.1772 -2.0181  0.1889
22596SOL    HW267967   7.080   5.808   8.885  0.8954  0.3673  0.9570
22597SOL     OW67968   1.321   8.293   8.126 -0.3570 -0.6313  0.0349
22597SOL    HW167969   1.279   8.212   8.083 -1.8720  0.4169 -0.5429
22597SOL    HW267970   1.250   8.361   8.144  0.8135  0.3641  1.0343
22598SOL     OW67971   6.911   4.056   4.017 -0.1886 -0.7675  0.4535
22598SOL    HW167972   6.828   4.107   4.039  0.8314  0.2037  2.3000
22598SOL    HW267973   6.918   3.976   4.077  0.0178 -1.0692  0.0334
22599SOL     OW67974   3.473   2.424   1.504 -0.0473  0.4012 -0.6397
22599SOL    HW167975   3.486   2.399   1.600 -0.9087 -0.1498 -0.6535
22599SOL    HW267976   3.553   2.398   1.451 -0.3983 -1.2137 -0.4308
22600SOL     OW67977   5.465   7.008   1.448 -0.0759  0.5075 -0.0730
22600SOL    HW167978   5.550   6.959   1.431 -0.2786  0.2059 -0.2235
22600SOL    HW267979   5.441   7.061   1.367  0.3489  1.1722  0.2280
22601SOL     OW67980   6.075   7.991   8.860  0.1490  0.1368  0.0649
22601SOL    HW167981   6.140   7.941   8.803  3.3621  1.7914  1.9441
22601SOL    HW267982   6.063   7.945   8.947 -1.1129 -0.0345 -0.1747
22602SOL     OW67983   1.469   0.744   6.203  0.2798 -0.4587 -0.1643
22602SOL    HW167984   1.503   0.713   6.114  0.6204  1.5979 -0.8094
22602SOL    HW267985   1.501   0.837   6.220 -2.7362  0.5742  0.4760
22603SOL     OW67986   4.578   8.560   3.952 -0.1948  0.3437 -0.6966
22603SOL    HW167987   4.502   8.510   3.911 -0.5975  0.2228  0.1747
22603SOL    HW267988   4.544   8.643   3.996  0.3168  0.7867 -1.1131
22604SOL     OW67989   7.627   6.428   2.429  0.5008 -0.1027  0.1928
22604SOL    HW167990   7.648   6.354   2.365  2.5962  0.7513 -0.1975
22604SOL    HW267991   7.614   6.513   2.378  0.6511  0.2812  0.7845
22605SOL     OW67992   8.158   5.149   5.149  0.1827  0.0255  0.6953
22605SOL    HW167993   8.243   5.190   5.182 -0.1397  1.4431 -0.1291
22605SOL    HW267994   8.122   5.205   5.074 -2.1168  0.1809  1.8356
22606SOL     OW67995   3.080   0.847   2.840  0.1004  0.1259  0.5420
22606SOL    HW167996   3.063   0.753   2.868  0.1309  0.0937  0.4508
22606SOL    HW267997   3.098   0.903   2.922 -0.2002  0.1121  0.6172
22607SOL     OW67998   7.324   3.165   0.291  0.2172 -0.0508 -0.4113
22607SOL    HW167999   7.275   3.101   0.350  0.6164  0.1291  0.1178
22607SOL    HW268000   7.259   3.234   0.257  0.2505  0.7229  1.0173
22608SOL     OW68001   0.495   7.960   3.544  0.0751  0.3486  0.2462
22608SOL    HW168002   0.551   7.878   3.551  0.1216  0.4221  0.8050
22608SOL    HW268003   0.478   7.997   3.636 -2.6410 -0.8540  0.3147
22609SOL     OW68004   2.702   1.217   5.477 -0.0211 -0.7157  0.5142
22609SOL    HW168005   2.754   1.157   5.415  2.0416 -1.5777  2.8850
22609SOL    HW268006   2.679   1.166   5.560  0.7626  1.4230  2.1187
22610SOL     OW68007   4.863   5.689   8.797 -0.0684  0.2386  0.4824
22610SOL    HW168008   4.793   5.646   8.741  1.0134 -0.3438 -0.4665
22610SOL    HW268009   4.849   5.788   8.798 -1.3153  0.0674  0.9110
22611SOL     OW68010   3.960   6.565   5.299 -0.2661  0.0417 -0.5451
22611SOL    HW168011   4.052   6.603   5.283  0.5244 -1.5989 -0.0803
22611SOL    HW268012   3.900   6.638   5.332  1.4281  0.7306  1.2096
22612SOL     OW68013   0.716   3.337   2.803 -0.3131  0.4675 -0.4144
22612SOL    HW168014   0.625   3.325   2.843 -0.1859  0.3941 -0.1478
22612SOL    HW268015   0.740   3.433   2.803 -0.6398  0.5558 -1.0332
22613SOL     OW68016   6.869   0.752   0.716 -0.0772  0.0170  0.2502
22613SOL    HW168017   6.773   0.778   0.710  0.0256  0.4184  0.2858
22613SOL    HW268018   6.925   0.835   0.723  0.1750 -0.2437  1.6439
22614SOL     OW68019   1.867   3.654   8.435 -0.2344  0.1938  0.1733
22614SOL    HW168020   1.771   3.657   8.465  0.1846 -0.2883  1.6490
22614SOL    HW268021   1.884   3.568   8.387 -0.6153  0.4522 -0.4511
22615SOL     OW68022   3.745   6.191   8.376 -0.1878  0.3974 -0.8937
22615SOL    HW168023   3.828   6.246   8.366  0.0829  0.4369  1.1387
22615SOL    HW268024   3.668   6.241   8.336  0.1786  1.9557  0.2318
22616SOL     OW68025   5.324   0.613   8.824 -0.0644 -0.0802 -0.4545
22616SOL    HW168026   5.323   0.682   8.752 -1.4899  0.1225 -0.2693
22616SOL    HW268027   5.306   0.523   8.785 -0.6295  0.0000 -0.3797
22617SOL     OW68028   7.168   3.332   7.977 -0.4734 -0.3330  0.1512
22617SOL    HW168029   7.246   3.294   7.927 -0.2863  0.7919 -0.4410
22617SOL    HW268030   7.110   3.384   7.914 -2.2000 -1.8652  0.3856
22618SOL     OW68031   5.023   4.410   2.159  0.1046 -0.0806  0.3337
22618SOL    HW168032   4.961   4.442   2.087  1.1856 -0.6232 -0.8895
22618SOL    HW268033   5.040   4.485   2.223  0.8760  1.1878 -1.2533
22619SOL     OW68034   1.252   4.698   0.807 -0.0091  0.0829  0.6143
22619SOL    HW168035   1.257   4.726   0.711 -0.8293  1.1714  0.8711
22619SOL    HW268036   1.316   4.752   0.862  0.3623 -0.4454  0.7102
22620SOL     OW68037   0.989   5.558   0.890 -0.1161  0.1386 -0.4019
22620SOL    HW168038   0.934   5.535   0.809  0.0843 -1.0966 -0.2069
22620SOL    HW268039   1.052   5.631   0.867 -1.5515  1.3163 -0.7415
22621SOL     OW68040   5.733   7.565   4.663  0.5800  0.1051 -0.3227
22621SOL    HW168041   5.832   7.582   4.666  1.1715 -2.6791 -0.8652
22621SOL    HW268042   5.707   7.508   4.741 -0.9243  1.8930  0.5675
22622SOL     OW68043   0.225   0.649   3.801 -0.4978  0.6737  0.1138
22622SOL    HW168044   0.216   0.730   3.859 -0.2985  0.5179  0.3652
22622SOL    HW268045   0.228   0.676   3.705 -1.2208  0.9108  0.1514
22623SOL     OW68046   1.712   6.351   6.401  0.3679 -0.3293  0.4294
22623SOL    HW168047   1.762   6.267   6.378 -1.2549 -0.8151 -1.6154
22623SOL    HW268048   1.733   6.421   6.333 -0.2912  0.0722  0.6318
22624SOL     OW68049   8.311   1.916   4.439 -0.1439  0.2431 -0.0405
22624SOL    HW168050   8.306   2.015   4.445 -2.5719  0.1586  0.6877
22624SOL    HW268051   8.307   1.887   4.343  2.5200  0.8227 -0.4030
22625SOL     OW68052   4.220   4.474   2.814 -0.5820  0.4224  0.3921
22625SOL    HW168053   4.286   4.496   2.742 -3.2634  0.8777 -2.0976
22625SOL    HW268054   4.222   4.545   2.884  0.8422  0.9115 -0.1098
22626SOL     OW68055   4.935   0.962   2.843 -0.3684  0.7271 -0.2958
22626SOL    HW168056   4.848   0.958   2.794  0.9311  0.1058 -2.7002
22626SOL    HW268057   5.007   0.923   2.787  1.4295  0.7912  1.8194
22627SOL     OW68058   0.420   3.796   3.716  0.4399 -0.1823 -0.5707
22627SOL    HW168059   0.425   3.709   3.765  0.7012 -0.7486 -1.5670
22627SOL    HW268060   0.441   3.781   3.619 -0.4991  0.8208 -0.9580
22628SOL     OW68061   5.811   2.345   3.282 -1.0897 -0.4581 -0.2332
22628SOL    HW168062   5.874   2.411   3.321  0.8547 -2.1537 -0.3569
22628SOL    HW268063   5.783   2.374   3.191  0.2008 -0.0905 -0.5256
22629SOL     OW68064   3.277   2.642   1.650 -0.3425 -0.2854  0.0261
22629SOL    HW168065   3.374   2.660   1.664 -0.0901 -0.4132 -1.4110
22629SOL    HW268066   3.261   2.543   1.648 -0.4658 -0.2666  0.0753
22630SOL     OW68067   3.758   0.338   2.119  0.5269  0.6655  0.0539
22630SOL    HW168068   3.773   0.244   2.150  0.6014  0.9588  0.9452
22630SOL    HW268069   3.727   0.338   2.024 -1.4682 -0.3783  0.6511
22631SOL     OW68070   8.304   8.024   4.855 -0.0594 -0.2940  0.1926
22631SOL    HW168071   8.386   7.994   4.806 -0.3693  0.2274 -0.6634
22631SOL    HW268072   8.228   7.963   4.833 -0.3291  0.2468 -0.4054
22632SOL     OW68073   8.268   0.225   3.595  0.7758 -0.0167 -0.0724
22632SOL    HW168074   8.230   0.142   3.636  0.1102  0.8999  1.2558
22632SOL    HW268075   8.313   0.203   3.509 -0.8572 -1.5111 -0.6009
22633SOL     OW68076   8.757   7.588   5.218 -0.7775  0.1027 -0.0450
22633SOL    HW168077   8.804   7.676   5.212 -0.1256 -0.3064 -3.9213
22633SOL    HW268078   8.668   7.601   5.261  0.4638  1.9972  2.2118
22634SOL     OW68079   0.308   6.995   4.391  0.1496  0.9267  0.1192
22634SOL    HW168080   0.293   6.984   4.489 -1.5059  1.2060 -0.0664
22634SOL    HW268081   0.396   6.955   4.366  0.7733  1.1631  1.7622
22635SOL     OW68082   6.365   6.925   6.887 -0.3860 -0.0969 -0.5202
22635SOL    HW168083   6.445   6.967   6.844 -0.9019  0.4213 -0.9909
22635SOL    HW268084   6.366   6.826   6.868 -0.8132  0.1716 -2.0996
22636SOL     OW68085   0.489   5.495   4.236  0.3882  0.3901 -0.5161
22636SOL    HW168086   0.558   5.473   4.305 -1.6651 -0.3540  1.4082
22636SOL    HW268087   0.466   5.592   4.242  0.0761  0.2848 -0.0391
22637SOL     OW68088   1.905   3.480   4.368  0.3682  0.5620  0.2998
22637SOL    HW168089   1.878   3.415   4.297  0.6416  0.1659  0.5569
22637SOL    HW268090   1.883   3.443   4.458  0.9956  0.6015  0.4713
22638SOL     OW68091   2.510   3.187   3.550  0.7844 -0.0672  0.3676
22638SOL    HW168092   2.474   3.280   3.553 -2.3268 -1.1021 -0.4502
22638SOL    HW268093   2.541   3.160   3.641  0.5991  1.3464  0.8750
22639SOL     OW68094   8.694   8.419   7.245 -0.2440 -0.3466 -0.0640
22639SOL    HW168095   8.748   8.490   7.290  0.0018 -0.5514 -0.0322
22639SOL    HW268096   8.597   8.443   7.249 -0.3167 -0.7654  1.3308
22640SOL     OW68097   7.149   8.540   0.553 -0.3401  0.4622  0.0619
22640SOL    HW168098   7.201   8.460   0.583  1.4260  0.9215 -1.6247
22640SOL    HW268099   7.054   8.532   0.586  0.5143 -0.8172  2.4905
22641SOL     OW68100   8.562   3.335   5.522  0.1094  0.8626 -0.0702
22641SOL    HW168101   8.609   3.272   5.582 -2.0876 -0.1375  0.7149
22641SOL    HW268102   8.587   3.429   5.545 -0.5424  0.5063  2.3721
22642SOL     OW68103   3.593   5.275   2.097 -0.2317 -0.6444 -0.3123
22642SOL    HW168104   3.673   5.216   2.083  0.3271 -0.5235  1.9578
22642SOL    HW268105   3.616   5.369   2.075 -0.1700 -0.7987 -0.9283
22643SOL     OW68106   7.690   2.253   2.716 -0.0769  0.6041  0.7173
22643SOL    HW168107   7.769   2.313   2.705  0.8726 -0.6628  0.4182
22643SOL    HW268108   7.714   2.160   2.688 -1.6659  0.1793  0.6699
22644SOL     OW68109   8.352   7.003   4.561 -0.1871 -0.4905  0.4345
22644SOL    HW168110   8.434   6.947   4.554  0.3847  0.4325 -0.6915
22644SOL    HW268111   8.273   6.952   4.525  0.6013 -0.0899 -2.0276
22645SOL     OW68112   0.185   7.891   8.577 -0.5283 -0.1746 -0.1028
22645SOL    HW168113   0.273   7.932   8.599  0.9260 -2.1996 -1.6840
22645SOL    HW268114   0.146   7.848   8.658  0.4786 -0.1967  0.3726
22646SOL     OW68115   0.225   6.321   2.488  0.0378  0.1788  0.0733
22646SOL    HW168116   0.268   6.336   2.399 -0.4720 -0.1225 -0.2305
22646SOL    HW268117   0.126   6.314   2.475 -0.1596  1.3959  0.8206
22647SOL     OW68118   0.694   0.294   6.641  0.4715 -0.5277  0.3118
22647SOL    HW168119   0.694   0.223   6.711  1.9284 -0.4615  0.4120
22647SOL    HW268120   0.602   0.330   6.630  0.1226 -0.8684  1.8541
22648SOL     OW68121   4.776   1.571   1.598  0.6602 -0.5938 -0.1573
22648SOL    HW168122   4.874   1.560   1.586  0.8760  0.1074  0.8659
22648SOL    HW268123   4.736   1.486   1.632  1.2043 -0.3461  1.1356
22649SOL     OW68124   0.959   0.291   6.617  0.5738 -0.2213 -0.4183
22649SOL    HW168125   0.861   0.305   6.627  0.8742  1.4373  0.4848
22649SOL    HW268126   0.977   0.241   6.533 -1.0751 -1.1403 -0.2730
22650SOL     OW68127   6.010   4.415   3.745  0.1974 -0.1663 -0.4628
22650SOL    HW168128   5.914   4.402   3.717 -0.0231  0.4262 -0.0072
22650SOL    HW268129   6.068   4.418   3.664 -0.3588  0.9113 -0.8427
22651SOL     OW68130   8.135   4.288   5.974 -0.1184 -0.0460  0.0721
22651SOL    HW168131   8.227   4.278   5.937  1.1498  2.0999  2.3437
22651SOL    HW268132   8.101   4.198   6.004  0.5280 -1.1101 -2.1772
22652SOL     OW68133   0.880   4.552   2.803  0.4373 -0.3202 -0.0114
22652SOL    HW168134   0.892   4.593   2.893 -1.2229  0.1140  0.0488
22652SOL    HW268135   0.969   4.523   2.767  0.9858 -2.0194  2.4472
22653SOL     OW68136   1.813   3.552   8.834 -0.1823  0.4312 -0.4872
22653SOL    HW168137   1.912   3.548   8.819  0.1772  1.1176  1.4118
22653SOL    HW268138   1.768   3.484   8.776  1.4455 -0.2598 -1.0054
22654SOL     OW68139   2.917   5.504   7.633 -0.2718  0.1745  0.0605
22654SOL    HW168140   2.943   5.572   7.702 -0.7125  1.7451 -1.2397
22654SOL    HW268141   2.903   5.550   7.545 -0.6631 -1.6216 -0.8688
22655SOL     OW68142   1.479   1.513   8.282 -0.0307 -0.1883 -0.4563
22655SOL    HW168143   1.463   1.587   8.217  0.9512  2.1810  1.8661
22655SOL    HW268144   1.546   1.449   8.243  2.5939  2.5770 -0.8227
22656SOL     OW68145   3.046   0.237   1.148 -0.0483 -0.7156 -0.0068
22656SOL    HW168146   3.045   0.264   1.052 -0.5832 -0.7763 -0.0199
22656SOL    HW268147   2.990   0.155   1.161 -0.3175 -0.4676  0.4245
22657SOL     OW68148   1.324   0.221   5.434 -0.9255  0.2446  0.2004
22657SOL    HW168149   1.268   0.139   5.446 -1.4786  0.2677 -1.8269
22657SOL    HW268150   1.274   0.301   5.466 -1.0161 -0.0267  0.7452
22658SOL     OW68151   4.149   0.261   5.359 -0.1101  0.4766  0.1102
22658SOL    HW168152   4.193   0.349   5.380  0.5765  0.1467  0.0904
22658SOL    HW268153   4.094   0.270   5.276 -0.3826  0.9970  0.3437
22659SOL     OW68154   0.071   7.860   6.449  0.1799 -0.4423 -0.0239
22659SOL    HW168155   0.165   7.860   6.485  1.0817 -0.6496 -2.2531
22659SOL    HW268156   0.073   7.863   6.349 -2.2267  0.2862 -0.1132
22660SOL     OW68157   2.220   6.739   7.274  0.0297 -0.5586  0.1658
22660SOL    HW168158   2.237   6.651   7.230  0.9394  0.2008 -1.0889
22660SOL    HW268159   2.293   6.759   7.340 -0.8289 -1.2700  1.3650
22661SOL     OW68160   7.304   6.018   6.851 -0.1723  0.3938  0.0131
22661SOL    HW168161   7.373   6.080   6.888  1.4064 -1.4125  0.2486
22661SOL    HW268162   7.305   6.023   6.751  1.9562 -1.2083 -0.1081
22662SOL     OW68163   6.585   2.680   2.926  0.4130 -0.1283 -0.5923
22662SOL    HW168164   6.491   2.713   2.941  1.0813  0.8883  1.7706
22662SOL    HW268165   6.632   2.743   2.865  0.0922  0.4146 -0.2982
22663SOL     OW68166   4.359   5.801   6.841 -0.2811  0.0012  0.0524
22663SOL    HW168167   4.417   5.876   6.873 -1.2159  0.6108  0.3653
22663SOL    HW268168   4.343   5.736   6.915 -2.6465  1.5382  1.0259
22664SOL     OW68169   4.303   3.978   5.283  0.0360  0.2348 -0.1264
22664SOL    HW168170   4.249   4.031   5.348  0.7632 -0.6999  1.2825
22664SOL    HW268171   4.272   3.883   5.283  1.5785 -0.2927  0.6311
22665SOL     OW68172   5.010   1.646   0.712 -0.0781 -0.2750 -0.0306
22665SOL    HW168173   5.009   1.558   0.666 -0.0862  0.6906 -1.9664
22665SOL    HW268174   4.930   1.699   0.686  0.9091  1.0625 -0.4648
22666SOL     OW68175   8.129   3.129   2.978 -0.0076 -0.3452 -0.1790
22666SOL    HW168176   8.216   3.086   2.952 -0.0136 -1.0570  0.9222
22666SOL    HW268177   8.147   3.221   3.013  0.2682 -0.3742 -0.2385
22667SOL     OW68178   2.432   1.247   2.793  0.2731  0.4087  0.1626
22667SOL    HW168179   2.489   1.164   2.799 -0.5258 -0.1908 -0.3381
22667SOL    HW268180   2.415   1.269   2.697 -0.2610  0.6386  0.3089
22668SOL     OW68181   6.572   2.115   0.658 -0.6263  0.1241  0.2944
22668SOL    HW168182   6.654   2.159   0.695 -0.7018 -0.0934  0.7302
22668SOL    HW268183   6.525   2.178   0.596  0.1885  0.0347 -0.4276
22669SOL     OW68184   1.014   4.539   8.755 -0.5410  0.5480 -0.1675
22669SOL    HW168185   0.944   4.522   8.825 -1.4609  1.6025 -0.8058
22669SOL    HW268186   1.036   4.636   8.753 -0.3811  0.5037 -1.2008
22670SOL     OW68187   1.274   7.606   3.292 -0.3163 -0.3580 -0.2457
22670SOL    HW168188   1.267   7.607   3.392  0.4397 -0.6446 -0.1795
22670SOL    HW268189   1.253   7.697   3.257  2.6494  0.7437  0.4683
   8.86198   8.86198   8.86198
