#include "/home/pcbj/saikat/c60_meta/gromos54a7_atb.ff/forcefield.itp"


#include "/home/pcbj/saikat/c60_meta/gromos54a7_atb.ff/spc.itp"

#include "/home/pcbj/saikat/c60_meta/gromos54a7_atb.ff/ions.itp"

#include "/home/pcbj/saikat/c60_meta/60.itp"



[system]

60_polymer in water

[molecules]
                
82NB             1

SOL             22669
